 Gaussian 16, Revision A.03,
 Gaussian 16:  EM64L-G16RevA.03 25-Dec-2016

 ------------------------
 #p opt M062X/6-311g(d,p)
 ------------------------

 ---------------------------------------------------------
 Optimization 03-DIHEDRAL_PHI_PSI_14b/dimer14b_000_005.log
 ---------------------------------------------------------
 Symbolic Z-matrix:
 Charge =  0 Multiplicity = 1

 SCF Done:  E(RM062X) =  -1297.82420026     A.U. after   12 cycles
 SCF Done:  E(RM062X) =  -1297.81760263     A.U. after   12 cycles
 SCF Done:  E(RM062X) =  -1297.82735498     A.U. after   11 cycles
 SCF Done:  E(RM062X) =  -1297.81937629     A.U. after   12 cycles
 SCF Done:  E(RM062X) =  -1297.82977862     A.U. after   12 cycles
 SCF Done:  E(RM062X) =  -1297.83091592     A.U. after   11 cycles
 SCF Done:  E(RM062X) =  -1297.83111799     A.U. after   11 cycles
 SCF Done:  E(RM062X) =  -1297.83149911     A.U. after   11 cycles
 SCF Done:  E(RM062X) =  -1297.83158270     A.U. after    9 cycles
 SCF Done:  E(RM062X) =  -1297.83161430     A.U. after    9 cycles
 SCF Done:  E(RM062X) =  -1297.83162507     A.U. after    9 cycles
 SCF Done:  E(RM062X) =  -1297.83163059     A.U. after    8 cycles
 SCF Done:  E(RM062X) =  -1297.83163342     A.U. after    8 cycles
 SCF Done:  E(RM062X) =  -1297.83163473     A.U. after    7 cycles
 SCF Done:  E(RM062X) =  -1297.83163542     A.U. after    7 cycles
 SCF Done:  E(RM062X) =  -1297.83163556     A.U. after    6 cycles
 Optimization completed.
    -- Stationary point found.

                         Standard orientation:
 ---------------------------------------------------------------------
 Center     Atomic      Atomic             Coordinates (Angstroms)
 Number     Number       Type             X           Y           Z
 ---------------------------------------------------------------------
      1          6           0        3.496932    0.379694   -0.751702
      2          1           0        2.939665    0.626258   -1.664026
      3          8           0        4.793087    0.793706   -0.957820
      4          1           0        5.331794    0.475498   -0.226642
      5          6           0        1.578570    0.863679    0.588465
      6          1           0        1.008471    1.111067   -0.318141
      7          8           0        2.962727    1.094722    0.354912
      8          6           0        3.380120   -1.115519   -0.458301
      9          1           0        3.965965   -1.329242    0.451144
     10          8           0        3.865171   -1.835655   -1.559475
     11          1           0        3.609065   -2.753617   -1.419448
     12          6           0        1.925769   -1.464941   -0.188148
     13          1           0        1.378164   -1.251537   -1.117222
     14          8           0        1.866568   -2.846736    0.100024
     15          1           0        0.938310   -3.088834    0.179800
     16          6           0        1.382073   -0.612135    0.949281
     17          1           0        1.949643   -0.836994    1.856487
     18          8           0        0.038722   -0.967857    1.280089
     19          6           0        1.163794    1.823467    1.684182
     20          1           0        0.185220    1.551636    2.070953
     21          1           0        1.904869    1.775204    2.490367
     22          8           0        1.055594    3.141724    1.173571
     23          1           0        1.902898    3.361771    0.771153
     24          6           0       -0.940939   -0.671120    0.341708
     25          1           0       -0.611064   -0.927318   -0.678550
     26          6           0       -2.174366    1.090540   -0.611578
     27          1           0       -1.789252    0.790846   -1.597699
     28          8           0       -1.251213    0.697462    0.400704
     29          6           0       -2.181449   -1.477312    0.685102
     30          1           0       -2.499486   -1.198517    1.696739
     31          8           0       -1.936814   -2.869204    0.587656
     32          1           0       -1.461228   -3.133495    1.380037
     33          6           0       -3.274179   -1.123200   -0.306922
     34          1           0       -2.953917   -1.449418   -1.308244
     35          8           0       -4.506884   -1.722428    0.029740
     36          1           0       -4.361950   -2.672888    0.070810
     37          6           0       -3.500322    0.382693   -0.354164
     38          1           0       -3.890024    0.702225    0.623781
     39          8           0       -4.392616    0.717074   -1.389857
     40          1           0       -5.168836    0.157975   -1.279811
     41          6           0       -2.244872    2.604911   -0.570681
     42          1           0       -2.976983    2.934944   -1.309032
     43          1           0       -2.591616    2.913932    0.424135
     44          8           0       -1.001336    3.172887   -0.896741
     45          1           0       -0.420526    3.150392   -0.122460
 ---------------------------------------------------------------------

 The electronic state is 1-A.
 Alpha  occ. eigenvalues --  -19.66676 -19.65460 -19.65142 -19.64479 -19.64462
 Alpha  occ. eigenvalues --  -19.63762 -19.63329 -19.63327 -19.62665 -19.62616
 Alpha  occ. eigenvalues --  -19.59630 -10.66508 -10.65263 -10.61740 -10.61331
 Alpha  occ. eigenvalues --  -10.61201 -10.60792 -10.60707 -10.60563 -10.60293
 Alpha  occ. eigenvalues --  -10.60048 -10.59131 -10.57888  -1.23925  -1.21726
 Alpha  occ. eigenvalues --   -1.18990  -1.18562  -1.17679  -1.16737  -1.16387
 Alpha  occ. eigenvalues --   -1.15312  -1.15105  -1.14261  -1.12654  -0.92324
 Alpha  occ. eigenvalues --   -0.90378  -0.88645  -0.87855  -0.80493  -0.78847
 Alpha  occ. eigenvalues --   -0.76348  -0.73670  -0.72155  -0.71734  -0.69876
 Alpha  occ. eigenvalues --   -0.69433  -0.65281  -0.64899  -0.63893  -0.62423
 Alpha  occ. eigenvalues --   -0.61685  -0.60995  -0.59868  -0.58993  -0.58335
 Alpha  occ. eigenvalues --   -0.58078  -0.57109  -0.56303  -0.55736  -0.55090
 Alpha  occ. eigenvalues --   -0.53930  -0.53375  -0.51736  -0.51493  -0.50820
 Alpha  occ. eigenvalues --   -0.50466  -0.49380  -0.48561  -0.47344  -0.47045
 Alpha  occ. eigenvalues --   -0.46171  -0.45974  -0.45295  -0.44505  -0.43935
 Alpha  occ. eigenvalues --   -0.43438  -0.42586  -0.42194  -0.41909  -0.40088
 Alpha  occ. eigenvalues --   -0.39777  -0.38739  -0.38147  -0.37720  -0.37334
 Alpha  occ. eigenvalues --   -0.36547  -0.36032  -0.35767  -0.34880  -0.34023
 Alpha  occ. eigenvalues --   -0.33521
 Alpha virt. eigenvalues --    0.03396   0.04733   0.06674   0.07102   0.07225
 Alpha virt. eigenvalues --    0.08452   0.08900   0.09189   0.10538   0.10766
 Alpha virt. eigenvalues --    0.11689   0.11960   0.12647   0.13416   0.14037

 Mulliken charges:
               1
     1  C    0.227154
     2  H    0.153477
     3  O   -0.369327
     4  H    0.248887
     5  C   -0.086078
     6  H    0.157876
     7  O   -0.397611
     8  C    0.010111
     9  H    0.139050
    10  O   -0.405394
    11  H    0.267875
    12  C   -0.056050
    13  H    0.159640
    14  O   -0.425131
    15  H    0.259831
    16  C    0.011524
    17  H    0.180338
    18  O   -0.401226
    19  C   -0.018578
    20  H    0.164695
    21  H    0.143795
    22  O   -0.434547
    23  H    0.277698
    24  C    0.217577
    25  H    0.138437
    26  C   -0.067411
    27  H    0.163087
    28  O   -0.394551
    29  C    0.006052
    30  H    0.170843
    31  O   -0.439537
    32  H    0.275215
    33  C   -0.027224
    34  H    0.158951
    35  O   -0.434580
    36  H    0.273684
    37  C    0.045116
    38  H    0.154856
    39  O   -0.419872
    40  H    0.271556
    41  C   -0.033814
    42  H    0.153931
    43  H    0.129431
    44  O   -0.428261
    45  H    0.278504
 Sum of Mulliken charges =  -0.00000

 Dipole moment (field-independent basis, Debye):
    X=             -0.9518    Y=             -4.3683    Z=              3.2165  Tot=              5.5076
 Quadrupole moment (field-independent basis, Debye-Ang):
   XX=           -138.8549   YY=           -140.7930   ZZ=           -139.7875
   XY=              5.5010   XZ=              7.4656   YZ=              2.0625

 Normal termination of Gaussian 16 at Thu Mar 16 19:24:46 2023.
