 Gaussian 16, Revision A.03,
 Gaussian 16:  EM64L-G16RevA.03 25-Dec-2016

 ------------------------
 #p opt M062X/6-311g(d,p)
 ------------------------

 ---------------------------------------------------------
 Optimization 03-DIHEDRAL_PHI_PSI_14b/dimer14b_000_001.log
 ---------------------------------------------------------
 Symbolic Z-matrix:
 Charge =  0 Multiplicity = 1

 SCF Done:  E(RM062X) =  -1297.82742377     A.U. after   12 cycles
 SCF Done:  E(RM062X) =  -1297.83087448     A.U. after   12 cycles
 SCF Done:  E(RM062X) =  -1297.83129491     A.U. after   12 cycles
 SCF Done:  E(RM062X) =  -1297.83190218     A.U. after   11 cycles
 SCF Done:  E(RM062X) =  -1297.83259716     A.U. after   11 cycles
 SCF Done:  E(RM062X) =  -1297.83274941     A.U. after   11 cycles
 SCF Done:  E(RM062X) =  -1297.83292034     A.U. after   10 cycles
 SCF Done:  E(RM062X) =  -1297.83293757     A.U. after    8 cycles
 SCF Done:  E(RM062X) =  -1297.83293951     A.U. after    7 cycles
 SCF Done:  E(RM062X) =  -1297.83294021     A.U. after    7 cycles
 SCF Done:  E(RM062X) =  -1297.83294031     A.U. after    6 cycles
 Optimization completed.
    -- Stationary point found.

                         Standard orientation:
 ---------------------------------------------------------------------
 Center     Atomic      Atomic             Coordinates (Angstroms)
 Number     Number       Type             X           Y           Z
 ---------------------------------------------------------------------
      1          6           0        4.073786   -0.245171   -0.212301
      2          1           0        4.258154    0.128374   -1.227050
      3          8           0        5.298888   -0.577260    0.316788
      4          1           0        5.156628   -1.074952    1.128036
      5          6           0        2.301911    1.324540    0.044178
      6          1           0        2.488567    1.704332   -0.971701
      7          8           0        3.496334    0.784680    0.583325
      8          6           0        3.092082   -1.411847   -0.247747
      9          1           0        2.939852   -1.749458    0.791346
     10          8           0        3.627948   -2.435758   -1.042193
     11          1           0        2.920302   -3.074586   -1.180423
     12          6           0        1.750268   -0.952531   -0.798384
     13          1           0        1.898017   -0.637047   -1.841632
     14          8           0        0.892360   -2.076283   -0.751612
     15          1           0        0.005259   -1.777111   -0.991454
     16          6           0        1.226326    0.245233   -0.019463
     17          1           0        0.951362   -0.071778    0.994804
     18          8           0        0.085424    0.797406   -0.682700
     19          6           0        1.924142    2.484950    0.944913
     20          1           0        1.008162    2.953725    0.580815
     21          1           0        1.738007    2.091698    1.954676
     22          8           0        2.934039    3.461525    0.948369
     23          1           0        3.754842    2.998510    1.147777
     24          6           0       -1.119451    0.599458   -0.030612
     25          1           0       -1.047312    0.909401    1.025714
     26          6           0       -2.621663   -1.120982    0.621560
     27          1           0       -2.528107   -0.782318    1.662600
     28          8           0       -1.435460   -0.774529   -0.095288
     29          6           0       -2.204921    1.391407   -0.737603
     30          1           0       -2.230796    1.070296   -1.786787
     31          8           0       -1.999815    2.782501   -0.624148
     32          1           0       -1.212281    3.010006   -1.127206
     33          6           0       -3.538303    1.079926   -0.078347
     34          1           0       -3.503263    1.446803    0.958684
     35          8           0       -4.615039    1.672556   -0.770056
     36          1           0       -4.440159    2.617957   -0.818476
     37          6           0       -3.799870   -0.419335   -0.040207
     38          1           0       -3.894506   -0.779092   -1.075593
     39          8           0       -4.957460   -0.706726    0.705108
     40          1           0       -5.656776   -0.138941    0.364211
     41          6           0       -2.687567   -2.634289    0.604866
     42          1           0       -3.573061   -2.958516    1.150863
     43          1           0       -2.778145   -2.971555   -0.437339
     44          8           0       -1.560076   -3.189908    1.238564
     45          1           0       -0.772339   -2.869554    0.783763
 ---------------------------------------------------------------------

 The electronic state is 1-A.
 Alpha  occ. eigenvalues --  -19.67295 -19.66852 -19.65205 -19.64855 -19.64103
 Alpha  occ. eigenvalues --  -19.64088 -19.63549 -19.63332 -19.62591 -19.61700
 Alpha  occ. eigenvalues --  -19.61522 -10.67392 -10.65469 -10.62178 -10.61734
 Alpha  occ. eigenvalues --  -10.61339 -10.61266 -10.61194 -10.61154 -10.61054
 Alpha  occ. eigenvalues --  -10.60584 -10.59548 -10.59247  -1.25036  -1.22086
 Alpha  occ. eigenvalues --   -1.19294  -1.18765  -1.17966  -1.17257  -1.16155
 Alpha  occ. eigenvalues --   -1.15623  -1.15110  -1.14476  -1.14092  -0.92998
 Alpha  occ. eigenvalues --   -0.91088  -0.88869  -0.88143  -0.81033  -0.79091
 Alpha  occ. eigenvalues --   -0.76671  -0.73702  -0.72868  -0.72254  -0.71057
 Alpha  occ. eigenvalues --   -0.69880  -0.65936  -0.64847  -0.64135  -0.63496
 Alpha  occ. eigenvalues --   -0.62678  -0.61491  -0.59801  -0.59223  -0.58734
 Alpha  occ. eigenvalues --   -0.58425  -0.57031  -0.56534  -0.55845  -0.55635
 Alpha  occ. eigenvalues --   -0.54479  -0.53822  -0.52826  -0.51655  -0.51102
 Alpha  occ. eigenvalues --   -0.50845  -0.50209  -0.48839  -0.47925  -0.47531
 Alpha  occ. eigenvalues --   -0.46303  -0.46035  -0.45673  -0.45224  -0.44429
 Alpha  occ. eigenvalues --   -0.43480  -0.43280  -0.42695  -0.42639  -0.40892
 Alpha  occ. eigenvalues --   -0.39908  -0.39354  -0.38386  -0.38001  -0.37278
 Alpha  occ. eigenvalues --   -0.36591  -0.36373  -0.35990  -0.35452  -0.35206
 Alpha  occ. eigenvalues --   -0.34374
 Alpha virt. eigenvalues --    0.04265   0.04978   0.06096   0.06472   0.07205
 Alpha virt. eigenvalues --    0.08059   0.08318   0.09634   0.10001   0.10210
 Alpha virt. eigenvalues --    0.10608   0.11291   0.12473   0.12869   0.13405

 Mulliken charges:
               1
     1  C    0.226579
     2  H    0.149305
     3  O   -0.370713
     4  H    0.251592
     5  C   -0.050012
     6  H    0.162370
     7  O   -0.401048
     8  C    0.003233
     9  H    0.138813
    10  O   -0.407449
    11  H    0.270861
    12  C    0.004972
    13  H    0.163830
    14  O   -0.446286
    15  H    0.280603
    16  C   -0.050086
    17  H    0.173616
    18  O   -0.401987
    19  C   -0.003517
    20  H    0.132200
    21  H    0.126815
    22  O   -0.412579
    23  H    0.262037
    24  C    0.239982
    25  H    0.147782
    26  C   -0.074110
    27  H    0.169031
    28  O   -0.447548
    29  C    0.009638
    30  H    0.164639
    31  O   -0.428965
    32  H    0.278049
    33  C   -0.031735
    34  H    0.160333
    35  O   -0.435343
    36  H    0.277704
    37  C    0.048922
    38  H    0.154878
    39  O   -0.421445
    40  H    0.274402
    41  C   -0.019763
    42  H    0.161645
    43  H    0.127172
    44  O   -0.404504
    45  H    0.246086
 Sum of Mulliken charges =  -0.00000

 Dipole moment (field-independent basis, Debye):
    X=             -2.5694    Y=              1.3416    Z=             -0.9800  Tot=              3.0597
 Quadrupole moment (field-independent basis, Debye-Ang):
   XX=           -151.6257   YY=           -150.3717   ZZ=           -134.3311
   XY=             -8.0367   XZ=              8.5610   YZ=             -0.7499

 Normal termination of Gaussian 16 at Thu Mar 16 18:31:49 2023.
