 Gaussian 16, Revision A.03,
 Gaussian 16:  EM64L-G16RevA.03 25-Dec-2016

 ------------------------
 #p opt M062X/6-311g(d,p)
 ------------------------

 ---------------------------------------------------------
 Optimization 03-DIHEDRAL_PHI_PSI_14b/dimer14b_000_007.log
 ---------------------------------------------------------
 Symbolic Z-matrix:
 Charge =  0 Multiplicity = 1

 SCF Done:  E(RM062X) =  -1297.82421688     A.U. after   12 cycles
 SCF Done:  E(RM062X) =  -1297.74919563     A.U. after   13 cycles
 SCF Done:  E(RM062X) =  -1297.81604346     A.U. after   12 cycles
 SCF Done:  E(RM062X) =  -1297.82589647     A.U. after   10 cycles
 SCF Done:  E(RM062X) =  -1297.82848085     A.U. after   11 cycles
 SCF Done:  E(RM062X) =  -1297.83034935     A.U. after   12 cycles
 SCF Done:  E(RM062X) =  -1297.83108001     A.U. after   11 cycles
 SCF Done:  E(RM062X) =  -1297.83139955     A.U. after   10 cycles
 SCF Done:  E(RM062X) =  -1297.83147012     A.U. after   10 cycles
 SCF Done:  E(RM062X) =  -1297.83154030     A.U. after    9 cycles
 SCF Done:  E(RM062X) =  -1297.83157547     A.U. after    9 cycles
 SCF Done:  E(RM062X) =  -1297.83159244     A.U. after    9 cycles
 SCF Done:  E(RM062X) =  -1297.83160382     A.U. after    8 cycles
 SCF Done:  E(RM062X) =  -1297.83161689     A.U. after    9 cycles
 SCF Done:  E(RM062X) =  -1297.83162504     A.U. after    9 cycles
 SCF Done:  E(RM062X) =  -1297.83163152     A.U. after    8 cycles
 SCF Done:  E(RM062X) =  -1297.83163425     A.U. after    7 cycles
 SCF Done:  E(RM062X) =  -1297.83163521     A.U. after    7 cycles
 SCF Done:  E(RM062X) =  -1297.83163547     A.U. after    6 cycles
 SCF Done:  E(RM062X) =  -1297.83163563     A.U. after    6 cycles
 Optimization completed.
    -- Stationary point found.

                         Standard orientation:
 ---------------------------------------------------------------------
 Center     Atomic      Atomic             Coordinates (Angstroms)
 Number     Number       Type             X           Y           Z
 ---------------------------------------------------------------------
      1          6           0        3.496815    0.379873   -0.751170
      2          1           0        2.939677    0.626963   -1.663432
      3          8           0        4.793024    0.793928   -0.956872
      4          1           0        5.331730    0.474876   -0.226064
      5          6           0        1.578246    0.863065    0.588910
      6          1           0        1.008333    1.110934   -0.317667
      7          8           0        2.962467    1.094257    0.355768
      8          6           0        3.379953   -1.115468   -0.458608
      9          1           0        3.965667   -1.329723    0.450796
     10          8           0        3.865206   -1.834934   -1.560155
     11          1           0        3.609742   -2.753112   -1.420414
     12          6           0        1.925628   -1.465240   -0.188743
     13          1           0        1.378020   -1.251608   -1.117759
     14          8           0        1.866830   -2.847124    0.098920
     15          1           0        0.938708   -3.089434    0.179437
     16          6           0        1.381720   -0.612948    0.949015
     17          1           0        1.949271   -0.838176    1.856141
     18          8           0        0.038375   -0.968954    1.279665
     19          6           0        1.163368    1.822427    1.684990
     20          1           0        0.184651    1.550685    2.071431
     21          1           0        1.904250    1.773739    2.491323
     22          8           0        1.055579    3.140908    1.174825
     23          1           0        1.903050    3.360882    0.772706
     24          6           0       -0.941268   -0.671806    0.341409
     25          1           0       -0.611715   -0.928424   -0.678843
     26          6           0       -2.173573    1.090652   -0.612036
     27          1           0       -1.788721    0.790633   -1.598155
     28          8           0       -1.250648    0.697011    0.400228
     29          6           0       -2.182399   -1.476908    0.685167
     30          1           0       -2.500239   -1.197380    1.696683
     31          8           0       -1.939135   -2.869029    0.588376
     32          1           0       -1.461592   -3.132896    1.379736
     33          6           0       -3.274844   -1.122293   -0.306994
     34          1           0       -2.954769   -1.448872   -1.308260
     35          8           0       -4.507916   -1.720727    0.029727
     36          1           0       -4.363118   -2.671136    0.072620
     37          6           0       -3.499996    0.383748   -0.354461
     38          1           0       -3.889439    0.703671    0.623455
     39          8           0       -4.392097    0.718590   -1.390173
     40          1           0       -5.168806    0.160220   -1.279907
     41          6           0       -2.242900    2.605075   -0.571147
     42          1           0       -2.974636    2.935747   -1.309579
     43          1           0       -2.589450    2.914400    0.423630
     44          8           0       -0.998757    3.171943   -0.897009
     45          1           0       -0.418539    3.149998   -0.122253
 ---------------------------------------------------------------------

 The electronic state is 1-A.
 Alpha  occ. eigenvalues --  -19.66680 -19.65458 -19.65141 -19.64479 -19.64464
 Alpha  occ. eigenvalues --  -19.63759 -19.63331 -19.63328 -19.62664 -19.62617
 Alpha  occ. eigenvalues --  -19.59630 -10.66509 -10.65262 -10.61742 -10.61330
 Alpha  occ. eigenvalues --  -10.61202 -10.60791 -10.60707 -10.60564 -10.60292
 Alpha  occ. eigenvalues --  -10.60048 -10.59133 -10.57888  -1.23927  -1.21726
 Alpha  occ. eigenvalues --   -1.18990  -1.18563  -1.17679  -1.16737  -1.16389
 Alpha  occ. eigenvalues --   -1.15314  -1.15104  -1.14262  -1.12653  -0.92324
 Alpha  occ. eigenvalues --   -0.90377  -0.88646  -0.87855  -0.80494  -0.78847
 Alpha  occ. eigenvalues --   -0.76349  -0.73670  -0.72156  -0.71733  -0.69876
 Alpha  occ. eigenvalues --   -0.69434  -0.65283  -0.64901  -0.63895  -0.62421
 Alpha  occ. eigenvalues --   -0.61683  -0.60994  -0.59868  -0.58992  -0.58336
 Alpha  occ. eigenvalues --   -0.58081  -0.57108  -0.56304  -0.55735  -0.55091
 Alpha  occ. eigenvalues --   -0.53928  -0.53375  -0.51738  -0.51493  -0.50819
 Alpha  occ. eigenvalues --   -0.50466  -0.49382  -0.48562  -0.47345  -0.47047
 Alpha  occ. eigenvalues --   -0.46174  -0.45978  -0.45296  -0.44506  -0.43931
 Alpha  occ. eigenvalues --   -0.43436  -0.42588  -0.42192  -0.41908  -0.40089
 Alpha  occ. eigenvalues --   -0.39777  -0.38740  -0.38147  -0.37717  -0.37335
 Alpha  occ. eigenvalues --   -0.36549  -0.36032  -0.35767  -0.34881  -0.34024
 Alpha  occ. eigenvalues --   -0.33520
 Alpha virt. eigenvalues --    0.03393   0.04733   0.06675   0.07103   0.07226
 Alpha virt. eigenvalues --    0.08451   0.08899   0.09190   0.10539   0.10764
 Alpha virt. eigenvalues --    0.11691   0.11963   0.12646   0.13417   0.14037

 Mulliken charges:
               1
     1  C    0.227178
     2  H    0.153499
     3  O   -0.369321
     4  H    0.248892
     5  C   -0.086108
     6  H    0.157907
     7  O   -0.397605
     8  C    0.009966
     9  H    0.139053
    10  O   -0.405392
    11  H    0.267881
    12  C   -0.055894
    13  H    0.159665
    14  O   -0.425100
    15  H    0.259837
    16  C    0.011423
    17  H    0.180350
    18  O   -0.401278
    19  C   -0.018570
    20  H    0.164701
    21  H    0.143808
    22  O   -0.434608
    23  H    0.277727
    24  C    0.217528
    25  H    0.138452
    26  C   -0.067306
    27  H    0.163102
    28  O   -0.394612
    29  C    0.006086
    30  H    0.170817
    31  O   -0.439496
    32  H    0.275146
    33  C   -0.027163
    34  H    0.158943
    35  O   -0.434597
    36  H    0.273694
    37  C    0.045114
    38  H    0.154845
    39  O   -0.419884
    40  H    0.271571
    41  C   -0.033901
    42  H    0.153940
    43  H    0.129458
    44  O   -0.428322
    45  H    0.278577
 Sum of Mulliken charges =  -0.00000

 Dipole moment (field-independent basis, Debye):
    X=             -0.9486    Y=             -4.3661    Z=              3.2180  Tot=              5.5062
 Quadrupole moment (field-independent basis, Debye-Ang):
   XX=           -138.8591   YY=           -140.7903   ZZ=           -139.7912
   XY=              5.4585   XZ=              7.4602   YZ=              2.0616

 Normal termination of Gaussian 16 at Thu Mar 16 20:14:00 2023.
