 Gaussian 16, Revision A.03,
 Gaussian 16:  EM64L-G16RevA.03 25-Dec-2016

 ------------------------
 #p opt M062X/6-311g(d,p)
 ------------------------

 ---------------------------------------------------------
 Optimization 03-DIHEDRAL_PHI_PSI_14b/dimer14b_000_008.log
 ---------------------------------------------------------
 Symbolic Z-matrix:
 Charge =  0 Multiplicity = 1

 SCF Done:  E(RM062X) =  -1297.82682530     A.U. after   13 cycles
 SCF Done:  E(RM062X) =  -1297.82708269     A.U. after   12 cycles
 SCF Done:  E(RM062X) =  -1297.82816271     A.U. after   11 cycles
 SCF Done:  E(RM062X) =  -1297.82844375     A.U. after   11 cycles
 SCF Done:  E(RM062X) =  -1297.82854459     A.U. after   11 cycles
 SCF Done:  E(RM062X) =  -1297.82861413     A.U. after    9 cycles
 SCF Done:  E(RM062X) =  -1297.82861989     A.U. after    9 cycles
 SCF Done:  E(RM062X) =  -1297.82861915     A.U. after    7 cycles
 SCF Done:  E(RM062X) =  -1297.82861975     A.U. after    7 cycles
 SCF Done:  E(RM062X) =  -1297.82861977     A.U. after    6 cycles
 Optimization completed.
    -- Stationary point found.

                         Standard orientation:
 ---------------------------------------------------------------------
 Center     Atomic      Atomic             Coordinates (Angstroms)
 Number     Number       Type             X           Y           Z
 ---------------------------------------------------------------------
      1          6           0        3.436573   -0.655268    0.196771
      2          1           0        2.924315   -1.623131    0.115509
      3          8           0        4.794893   -0.936023    0.287339
      4          1           0        5.265061   -0.101094    0.181492
      5          6           0        1.818673    0.408869   -1.157994
      6          1           0        1.275561   -0.540268   -1.245528
      7          8           0        3.204920    0.139504   -0.942060
      8          6           0        2.948715    0.096719    1.428487
      9          1           0        3.521726    1.034787    1.500237
     10          8           0        3.092785   -0.676327    2.596979
     11          1           0        3.996584   -1.007456    2.620740
     12          6           0        1.473197    0.438550    1.308540
     13          1           0        0.918706   -0.511758    1.263831
     14          8           0        1.049621    1.219275    2.402225
     15          1           0        1.333972    0.756278    3.198233
     16          6           0        1.258202    1.218026    0.019194
     17          1           0        1.810823    2.160070    0.093607
     18          8           0       -0.090241    1.595264   -0.237083
     19          6           0        1.735997    1.139879   -2.482105
     20          1           0        0.691198    1.336897   -2.718821
     21          1           0        2.263289    2.099876   -2.387932
     22          8           0        2.272856    0.352941   -3.517249
     23          1           0        3.145216    0.073234   -3.222129
     24          6           0       -1.096671    0.765991    0.240442
     25          1           0       -1.012710    0.642130    1.329511
     26          6           0       -1.989343   -1.409972    0.099655
     27          1           0       -1.891915   -1.492672    1.192151
     28          8           0       -1.011016   -0.495070   -0.394895
     29          6           0       -2.423391    1.419000   -0.112277
     30          1           0       -2.460637    1.541071   -1.203100
     31          8           0       -2.596446    2.649944    0.551760
     32          1           0       -1.835273    3.200783    0.343296
     33          6           0       -3.548481    0.506567    0.337467
     34          1           0       -3.510460    0.428097    1.434275
     35          8           0       -4.812316    0.983023   -0.073741
     36          1           0       -4.897262    1.884408    0.253265
     37          6           0       -3.377410   -0.885219   -0.245360
     38          1           0       -3.468802   -0.815831   -1.339311
     39          8           0       -4.329359   -1.776168    0.286864
     40          1           0       -5.186866   -1.345672    0.203775
     41          6           0       -1.676149   -2.754106   -0.523897
     42          1           0       -2.359142   -3.502192   -0.123511
     43          1           0       -1.824516   -2.687144   -1.609544
     44          8           0       -0.360578   -3.154772   -0.206425
     45          1           0        0.220725   -2.477364   -0.563289
 ---------------------------------------------------------------------

 The electronic state is 1-A.
 Alpha  occ. eigenvalues --  -19.65843 -19.65749 -19.65326 -19.65114 -19.64386
 Alpha  occ. eigenvalues --  -19.63486 -19.63365 -19.62971 -19.62375 -19.61644
 Alpha  occ. eigenvalues --  -19.61336 -10.66345 -10.65469 -10.61721 -10.61204
 Alpha  occ. eigenvalues --  -10.61098 -10.60848 -10.60181 -10.60089 -10.59933
 Alpha  occ. eigenvalues --  -10.59870 -10.58861 -10.58502  -1.23536  -1.22939
 Alpha  occ. eigenvalues --   -1.18544  -1.17944  -1.17459  -1.16638  -1.15880
 Alpha  occ. eigenvalues --   -1.15520  -1.14460  -1.14248  -1.14179  -0.92322
 Alpha  occ. eigenvalues --   -0.89863  -0.88999  -0.87481  -0.80356  -0.79002
 Alpha  occ. eigenvalues --   -0.76247  -0.73748  -0.72206  -0.71654  -0.69777
 Alpha  occ. eigenvalues --   -0.68774  -0.65471  -0.65095  -0.63779  -0.61667
 Alpha  occ. eigenvalues --   -0.61111  -0.60802  -0.60595  -0.59450  -0.58257
 Alpha  occ. eigenvalues --   -0.58146  -0.57016  -0.56080  -0.55134  -0.53861
 Alpha  occ. eigenvalues --   -0.53251  -0.52944  -0.52328  -0.50765  -0.50480
 Alpha  occ. eigenvalues --   -0.49673  -0.49549  -0.48822  -0.48205  -0.47336
 Alpha  occ. eigenvalues --   -0.46999  -0.46475  -0.45585  -0.44716  -0.44070
 Alpha  occ. eigenvalues --   -0.43310  -0.42445  -0.41893  -0.41330  -0.40844
 Alpha  occ. eigenvalues --   -0.40001  -0.38690  -0.38254  -0.37185  -0.37065
 Alpha  occ. eigenvalues --   -0.36380  -0.35614  -0.35231  -0.34838  -0.34363
 Alpha  occ. eigenvalues --   -0.34023
 Alpha virt. eigenvalues --    0.04078   0.05453   0.06039   0.06625   0.07429
 Alpha virt. eigenvalues --    0.08139   0.09018   0.09585   0.10342   0.11255
 Alpha virt. eigenvalues --    0.11549   0.11973   0.12443   0.12982   0.13418

 Mulliken charges:
               1
     1  C    0.208406
     2  H    0.158300
     3  O   -0.397873
     4  H    0.254734
     5  C   -0.076776
     6  H    0.152233
     7  O   -0.407364
     8  C    0.011386
     9  H    0.141330
    10  O   -0.432392
    11  H    0.273886
    12  C   -0.069202
    13  H    0.167629
    14  O   -0.414274
    15  H    0.275603
    16  C    0.041718
    17  H    0.177899
    18  O   -0.409168
    19  C    0.009364
    20  H    0.150486
    21  H    0.122455
    22  O   -0.411669
    23  H    0.256585
    24  C    0.201051
    25  H    0.166840
    26  C   -0.082107
    27  H    0.165899
    28  O   -0.417655
    29  C    0.036840
    30  H    0.162069
    31  O   -0.435840
    32  H    0.275049
    33  C   -0.029688
    34  H    0.159115
    35  O   -0.439588
    36  H    0.277180
    37  C    0.049007
    38  H    0.155782
    39  O   -0.426479
    40  H    0.273204
    41  C   -0.027069
    42  H    0.161162
    43  H    0.133480
    44  O   -0.398085
    45  H    0.256536
 Sum of Mulliken charges =  -0.00000

 Dipole moment (field-independent basis, Debye):
    X=              2.0878    Y=              2.8928    Z=              1.6636  Tot=              3.9364
 Quadrupole moment (field-independent basis, Debye-Ang):
   XX=           -121.6597   YY=           -143.9903   ZZ=           -144.2050
   XY=              2.9143   XZ=              6.8848   YZ=             -0.3073

 Normal termination of Gaussian 16 at Thu Mar 16 19:28:11 2023.
