 Gaussian 16, Revision A.03,
 Gaussian 16:  EM64L-G16RevA.03 25-Dec-2016

 ------------------------
 #p opt M062X/6-311g(d,p)
 ------------------------

 ---------------------------------------------------------
 Optimization 03-DIHEDRAL_PHI_PSI_14b/dimer14b_000_003.log
 ---------------------------------------------------------
 Symbolic Z-matrix:
 Charge =  0 Multiplicity = 1

 SCF Done:  E(RM062X) =  -1297.81998843     A.U. after   12 cycles
 SCF Done:  E(RM062X) =  -1297.82038209     A.U. after   11 cycles
 SCF Done:  E(RM062X) =  -1297.82057968     A.U. after   12 cycles
 SCF Done:  E(RM062X) =  -1297.82107355     A.U. after   11 cycles
 SCF Done:  E(RM062X) =  -1297.82123183     A.U. after   11 cycles
 SCF Done:  E(RM062X) =  -1297.82129761     A.U. after   11 cycles
 SCF Done:  E(RM062X) =  -1297.82131107     A.U. after    9 cycles
 SCF Done:  E(RM062X) =  -1297.82131304     A.U. after    8 cycles
 SCF Done:  E(RM062X) =  -1297.82131356     A.U. after    7 cycles
 SCF Done:  E(RM062X) =  -1297.82131373     A.U. after    6 cycles
 Optimization completed.
    -- Stationary point found.

                         Standard orientation:
 ---------------------------------------------------------------------
 Center     Atomic      Atomic             Coordinates (Angstroms)
 Number     Number       Type             X           Y           Z
 ---------------------------------------------------------------------
      1          6           0        4.024754    0.181085   -0.442431
      2          1           0        4.078008   -0.397322   -1.372958
      3          8           0        5.226276    0.838403   -0.314703
      4          1           0        5.279784    1.206552    0.572803
      5          6           0        1.695099    0.648569   -0.867428
      6          1           0        1.738099    0.132063   -1.838196
      7          8           0        2.985695    1.147096   -0.527501
      8          6           0        3.691873   -0.726425    0.732058
      9          1           0        3.628644   -0.098161    1.635515
     10          8           0        4.683227   -1.710523    0.860270
     11          1           0        4.343008   -2.361893    1.482961
     12          6           0        2.338070   -1.361082    0.483814
     13          1           0        2.425560   -1.992155   -0.413678
     14          8           0        2.045026   -2.157649    1.612373
     15          1           0        1.174508   -2.542285    1.472606
     16          6           0        1.244595   -0.335481    0.221473
     17          1           0        1.024159    0.207363    1.146671
     18          8           0        0.123850   -1.153537   -0.127072
     19          6           0        0.871376    1.927581   -0.999334
     20          1           0       -0.156314    1.733913   -1.298711
     21          1           0        0.852149    2.420266   -0.017729
     22          8           0        1.432121    2.757986   -1.983001
     23          1           0        2.365845    2.842659   -1.762318
     24          6           0       -1.097918   -0.535401   -0.383517
     25          1           0       -1.077442   -0.030531   -1.361604
     26          6           0       -2.602774    1.091860    0.419244
     27          1           0       -2.563728    1.601983   -0.554260
     28          8           0       -1.375439    0.389846    0.635085
     29          6           0       -2.161202   -1.622999   -0.410811
     30          1           0       -2.146143   -2.135439    0.560409
     31          8           0       -1.961349   -2.523669   -1.476948
     32          1           0       -1.095009   -2.926427   -1.366236
     33          6           0       -3.515355   -0.973976   -0.621802
     34          1           0       -3.521173   -0.497451   -1.613436
     35          8           0       -4.569395   -1.906499   -0.520461
     36          1           0       -4.399434   -2.604127   -1.161484
     37          6           0       -3.758242    0.098203    0.425212
     38          1           0       -3.803225   -0.387764    1.411247
     39          8           0       -4.942461    0.808730    0.156269
     40          1           0       -5.633508    0.153574    0.012027
     41          6           0       -2.701026    2.126911    1.521032
     42          1           0       -3.591981    2.732934    1.361485
     43          1           0       -2.798091    1.607475    2.483966
     44          8           0       -1.583943    2.984618    1.505876
     45          1           0       -0.808110    2.423297    1.594355
 ---------------------------------------------------------------------

 The electronic state is 1-A.
 Alpha  occ. eigenvalues --  -19.67064 -19.66435 -19.64908 -19.64835 -19.64208
 Alpha  occ. eigenvalues --  -19.63942 -19.63624 -19.63179 -19.62709 -19.61900
 Alpha  occ. eigenvalues --  -19.61220 -10.67013 -10.65504 -10.62009 -10.61426
 Alpha  occ. eigenvalues --  -10.61406 -10.61226 -10.61152 -10.60975 -10.60816
 Alpha  occ. eigenvalues --  -10.60521 -10.59386 -10.59068  -1.24478  -1.22125
 Alpha  occ. eigenvalues --   -1.19127  -1.18800  -1.17891  -1.16954  -1.16060
 Alpha  occ. eigenvalues --   -1.15446  -1.15171  -1.14724  -1.13771  -0.92608
 Alpha  occ. eigenvalues --   -0.90954  -0.88751  -0.88248  -0.81434  -0.78763
 Alpha  occ. eigenvalues --   -0.76325  -0.73599  -0.72642  -0.72142  -0.70358
 Alpha  occ. eigenvalues --   -0.69980  -0.65645  -0.65207  -0.64308  -0.62640
 Alpha  occ. eigenvalues --   -0.62369  -0.61434  -0.59470  -0.59148  -0.59030
 Alpha  occ. eigenvalues --   -0.57822  -0.56786  -0.56514  -0.55637  -0.55135
 Alpha  occ. eigenvalues --   -0.54428  -0.53494  -0.53108  -0.51322  -0.50839
 Alpha  occ. eigenvalues --   -0.50423  -0.50321  -0.49303  -0.47882  -0.47526
 Alpha  occ. eigenvalues --   -0.46403  -0.46264  -0.45578  -0.45058  -0.44150
 Alpha  occ. eigenvalues --   -0.43479  -0.43048  -0.42480  -0.41504  -0.40774
 Alpha  occ. eigenvalues --   -0.39707  -0.39046  -0.38354  -0.37661  -0.37561
 Alpha  occ. eigenvalues --   -0.36469  -0.36353  -0.35870  -0.35532  -0.35012
 Alpha  occ. eigenvalues --   -0.34102
 Alpha virt. eigenvalues --    0.03679   0.05049   0.05971   0.06428   0.07007
 Alpha virt. eigenvalues --    0.07623   0.08329   0.09384   0.10224   0.10629
 Alpha virt. eigenvalues --    0.11041   0.11256   0.11971   0.12662   0.13117

 Mulliken charges:
               1
     1  C    0.226114
     2  H    0.147379
     3  O   -0.372256
     4  H    0.251935
     5  C   -0.072895
     6  H    0.168268
     7  O   -0.413584
     8  C    0.013351
     9  H    0.139008
    10  O   -0.408165
    11  H    0.269419
    12  C   -0.045964
    13  H    0.155934
    14  O   -0.431723
    15  H    0.270601
    16  C    0.029237
    17  H    0.176177
    18  O   -0.439566
    19  C    0.001343
    20  H    0.143372
    21  H    0.127661
    22  O   -0.414808
    23  H    0.262728
    24  C    0.233183
    25  H    0.140816
    26  C   -0.091884
    27  H    0.171751
    28  O   -0.414031
    29  C    0.020054
    30  H    0.156307
    31  O   -0.430871
    32  H    0.271879
    33  C   -0.031758
    34  H    0.162198
    35  O   -0.436143
    36  H    0.277802
    37  C    0.049100
    38  H    0.155953
    39  O   -0.423360
    40  H    0.274376
    41  C   -0.014087
    42  H    0.162484
    43  H    0.129352
    44  O   -0.398108
    45  H    0.251424
 Sum of Mulliken charges =  -0.00000

 Dipole moment (field-independent basis, Debye):
    X=             -1.5830    Y=             -4.1184    Z=              1.2073  Tot=              4.5743
 Quadrupole moment (field-independent basis, Debye-Ang):
   XX=           -149.9796   YY=           -143.4240   ZZ=           -137.8545
   XY=              8.1091   XZ=              7.3990   YZ=              4.8276

 Normal termination of Gaussian 16 at Thu Mar 16 18:37:44 2023.
