 Gaussian 16, Revision A.03,
 Gaussian 16:  EM64L-G16RevA.03 25-Dec-2016

 ------------------------
 #p opt M062X/6-311g(d,p)
 ------------------------

 ---------------------------------------------------------
 Optimization 03-DIHEDRAL_PHI_PSI_14b/dimer14b_000_002.log
 ---------------------------------------------------------
 Symbolic Z-matrix:
 Charge =  0 Multiplicity = 1

 SCF Done:  E(RM062X) =  -1297.82008722     A.U. after   12 cycles
 SCF Done:  E(RM062X) =  -1297.82180293     A.U. after   12 cycles
 SCF Done:  E(RM062X) =  -1297.82774530     A.U. after   13 cycles
 SCF Done:  E(RM062X) =  -1297.79528730     A.U. after   12 cycles
 SCF Done:  E(RM062X) =  -1297.81861278     A.U. after   13 cycles
 SCF Done:  E(RM062X) =  -1297.83032803     A.U. after   11 cycles
 SCF Done:  E(RM062X) =  -1297.80172834     A.U. after   14 cycles
 SCF Done:  E(RM062X) =  -1297.82968309     A.U. after   12 cycles
 SCF Done:  E(RM062X) =  -1297.83140822     A.U. after    9 cycles
 SCF Done:  E(RM062X) =  -1297.83184766     A.U. after   12 cycles
 SCF Done:  E(RM062X) =  -1297.83250797     A.U. after   11 cycles
 SCF Done:  E(RM062X) =  -1297.83280083     A.U. after   11 cycles
 SCF Done:  E(RM062X) =  -1297.83291473     A.U. after   10 cycles
 SCF Done:  E(RM062X) =  -1297.83293389     A.U. after    9 cycles
 SCF Done:  E(RM062X) =  -1297.83293832     A.U. after    7 cycles
 SCF Done:  E(RM062X) =  -1297.83294012     A.U. after    7 cycles
 SCF Done:  E(RM062X) =  -1297.83294029     A.U. after    6 cycles
 Optimization completed.
    -- Stationary point found.

                         Standard orientation:
 ---------------------------------------------------------------------
 Center     Atomic      Atomic             Coordinates (Angstroms)
 Number     Number       Type             X           Y           Z
 ---------------------------------------------------------------------
      1          6           0       -4.073574    0.244681   -0.212112
      2          1           0       -4.257876   -0.129331   -1.226707
      3          8           0       -5.298629    0.576844    0.316959
      4          1           0       -5.156510    1.077955    1.126108
      5          6           0       -2.301675   -1.324865    0.044363
      6          1           0       -2.488717   -1.705106   -0.971275
      7          8           0       -3.495874   -0.784847    0.583782
      8          6           0       -3.091948    1.411411   -0.248005
      9          1           0       -2.939325    1.749011    0.791037
     10          8           0       -3.628229    2.435355   -1.042156
     11          1           0       -2.920530    3.073965   -1.181141
     12          6           0       -1.750364    0.952110   -0.799160
     13          1           0       -1.898573    0.636489   -1.842303
     14          8           0       -0.892523    2.075879   -0.752882
     15          1           0       -0.005302    1.776624   -0.992168
     16          6           0       -1.226177   -0.245497   -0.020065
     17          1           0       -0.951063    0.072026    0.994019
     18          8           0       -0.085310   -0.797666   -0.683278
     19          6           0       -1.923491   -2.484827    0.945557
     20          1           0       -1.007524   -2.953637    0.581496
     21          1           0       -1.737204   -2.091028    1.955089
     22          8           0       -2.933140   -3.461593    0.949651
     23          1           0       -3.753946   -2.998717    1.149346
     24          6           0        1.119532   -0.599518   -0.031195
     25          1           0        1.047405   -0.909499    1.025108
     26          6           0        2.621095    1.121146    0.621776
     27          1           0        2.527064    0.782096    1.662640
     28          8           0        1.435326    0.774516   -0.095795
     29          6           0        2.205307   -1.391008   -0.738214
     30          1           0        2.231378   -1.069405   -1.787253
     31          8           0        2.000673   -2.782192   -0.625446
     32          1           0        1.212418   -3.009492   -1.127482
     33          6           0        3.538408   -1.079370   -0.078436
     34          1           0        3.503131   -1.446533    0.958487
     35          8           0        4.615508   -1.671580   -0.769964
     36          1           0        4.440721   -2.616971   -0.818978
     37          6           0        3.799712    0.419963   -0.039719
     38          1           0        3.894740    0.780048   -1.074946
     39          8           0        4.956976    0.707238    0.706168
     40          1           0        5.656524    0.139737    0.365271
     41          6           0        2.686320    2.634468    0.605749
     42          1           0        3.571524    2.958908    1.152099
     43          1           0        2.776990    2.972246   -0.436274
     44          8           0        1.558323    3.189153    1.239371
     45          1           0        0.770998    2.869586    0.783296
 ---------------------------------------------------------------------

 The electronic state is 1-A.
 Alpha  occ. eigenvalues --  -19.67297 -19.66852 -19.65204 -19.64852 -19.64102
 Alpha  occ. eigenvalues --  -19.64090 -19.63550 -19.63332 -19.62595 -19.61700
 Alpha  occ. eigenvalues --  -19.61524 -10.67392 -10.65469 -10.62179 -10.61733
 Alpha  occ. eigenvalues --  -10.61339 -10.61266 -10.61196 -10.61153 -10.61054
 Alpha  occ. eigenvalues --  -10.60586 -10.59548 -10.59248  -1.25037  -1.22085
 Alpha  occ. eigenvalues --   -1.19293  -1.18766  -1.17968  -1.17257  -1.16157
 Alpha  occ. eigenvalues --   -1.15622  -1.15112  -1.14478  -1.14093  -0.92997
 Alpha  occ. eigenvalues --   -0.91087  -0.88871  -0.88143  -0.81033  -0.79091
 Alpha  occ. eigenvalues --   -0.76671  -0.73703  -0.72867  -0.72256  -0.71058
 Alpha  occ. eigenvalues --   -0.69882  -0.65936  -0.64847  -0.64137  -0.63494
 Alpha  occ. eigenvalues --   -0.62678  -0.61491  -0.59801  -0.59226  -0.58733
 Alpha  occ. eigenvalues --   -0.58425  -0.57030  -0.56533  -0.55850  -0.55635
 Alpha  occ. eigenvalues --   -0.54480  -0.53823  -0.52829  -0.51654  -0.51102
 Alpha  occ. eigenvalues --   -0.50846  -0.50209  -0.48839  -0.47926  -0.47534
 Alpha  occ. eigenvalues --   -0.46306  -0.46037  -0.45675  -0.45224  -0.44428
 Alpha  occ. eigenvalues --   -0.43477  -0.43277  -0.42696  -0.42635  -0.40893
 Alpha  occ. eigenvalues --   -0.39908  -0.39353  -0.38389  -0.37998  -0.37281
 Alpha  occ. eigenvalues --   -0.36592  -0.36376  -0.35992  -0.35453  -0.35206
 Alpha  occ. eigenvalues --   -0.34374
 Alpha virt. eigenvalues --    0.04267   0.04978   0.06094   0.06473   0.07207
 Alpha virt. eigenvalues --    0.08061   0.08317   0.09633   0.10000   0.10210
 Alpha virt. eigenvalues --    0.10609   0.11293   0.12472   0.12870   0.13406

 Mulliken charges:
               1
     1  C    0.226681
     2  H    0.149240
     3  O   -0.370743
     4  H    0.251693
     5  C   -0.049951
     6  H    0.162367
     7  O   -0.400920
     8  C    0.002980
     9  H    0.138843
    10  O   -0.407480
    11  H    0.270883
    12  C    0.005043
    13  H    0.163842
    14  O   -0.446312
    15  H    0.280625
    16  C   -0.050214
    17  H    0.173627
    18  O   -0.401975
    19  C   -0.003559
    20  H    0.132181
    21  H    0.126828
    22  O   -0.412557
    23  H    0.262045
    24  C    0.239833
    25  H    0.147794
    26  C   -0.074050
    27  H    0.169039
    28  O   -0.447582
    29  C    0.009802
    30  H    0.164615
    31  O   -0.428964
    32  H    0.278033
    33  C   -0.031762
    34  H    0.160328
    35  O   -0.435366
    36  H    0.277716
    37  C    0.048980
    38  H    0.154879
    39  O   -0.421443
    40  H    0.274404
    41  C   -0.019892
    42  H    0.161655
    43  H    0.127205
    44  O   -0.404480
    45  H    0.246087
 Sum of Mulliken charges =  -0.00000

 Dipole moment (field-independent basis, Debye):
    X=              2.5686    Y=             -1.3334    Z=             -0.9837  Tot=              3.0567
 Quadrupole moment (field-independent basis, Debye-Ang):
   XX=           -151.6221   YY=           -150.3489   ZZ=           -134.3494
   XY=             -8.0428   XZ=             -8.5400   YZ=              0.7465

 Normal termination of Gaussian 16 at Thu Mar 16 18:55:12 2023.
