 Gaussian 16, Revision A.03,
 Gaussian 16:  EM64L-G16RevA.03 25-Dec-2016

 ------------------------
 #p opt M062X/6-311g(d,p)
 ------------------------

 ---------------------------------------------------------
 Optimization 03-DIHEDRAL_PHI_PSI_14b/dimer14b_000_010.log
 ---------------------------------------------------------
 Symbolic Z-matrix:
 Charge =  0 Multiplicity = 1

 SCF Done:  E(RM062X) =  -1297.83016173     A.U. after   12 cycles
 SCF Done:  E(RM062X) =  -1297.82576498     A.U. after   12 cycles
 SCF Done:  E(RM062X) =  -1297.83189099     A.U. after   11 cycles
 SCF Done:  E(RM062X) =  -1297.83250030     A.U. after   11 cycles
 SCF Done:  E(RM062X) =  -1297.83217611     A.U. after   11 cycles
 SCF Done:  E(RM062X) =  -1297.83257804     A.U. after   10 cycles
 SCF Done:  E(RM062X) =  -1297.83267778     A.U. after    9 cycles
 SCF Done:  E(RM062X) =  -1297.83268416     A.U. after    9 cycles
 SCF Done:  E(RM062X) =  -1297.83268737     A.U. after    8 cycles
 SCF Done:  E(RM062X) =  -1297.83268881     A.U. after    7 cycles
 SCF Done:  E(RM062X) =  -1297.83268948     A.U. after    7 cycles
 SCF Done:  E(RM062X) =  -1297.83268975     A.U. after    7 cycles
 SCF Done:  E(RM062X) =  -1297.83268979     A.U. after    6 cycles
 Optimization completed.
    -- Stationary point found.

                         Standard orientation:
 ---------------------------------------------------------------------
 Center     Atomic      Atomic             Coordinates (Angstroms)
 Number     Number       Type             X           Y           Z
 ---------------------------------------------------------------------
      1          6           0        3.896017   -0.674962   -0.285494
      2          1           0        3.783932   -0.802585   -1.369378
      3          8           0        5.188195   -1.033191    0.025700
      4          1           0        5.251747   -1.141166    0.979674
      5          6           0        2.455489    1.204636   -0.373080
      6          1           0        2.353049    1.056427   -1.458462
      7          8           0        3.702029    0.690618    0.060683
      8          6           0        2.844843   -1.475494    0.466118
      9          1           0        2.997465   -1.275912    1.540725
     10          8           0        3.000039   -2.840103    0.181983
     11          1           0        2.238150   -3.271481    0.585141
     12          6           0        1.427883   -1.021633    0.111041
     13          1           0        1.238947   -1.244216   -0.946685
     14          8           0        0.572522   -1.783774    0.941684
     15          1           0       -0.172683   -2.116242    0.420127
     16          6           0        1.298532    0.488017    0.323478
     17          1           0        1.320445    0.691020    1.403771
     18          8           0        0.127158    1.071515   -0.242114
     19          6           0        2.500908    2.693652   -0.080377
     20          1           0        1.597779    3.169464   -0.462162
     21          1           0        2.542620    2.831549    1.009849
     22          8           0        3.600640    3.291202   -0.719566
     23          1           0        4.362987    2.742003   -0.506549
     24          6           0       -1.088877    0.593965    0.211388
     25          1           0       -1.034687    0.348863    1.284099
     26          6           0       -2.627488   -1.159208   -0.054489
     27          1           0       -2.560425   -1.333647    1.030636
     28          8           0       -1.427282   -0.564434   -0.523664
     29          6           0       -2.146184    1.655860   -0.052357
     30          1           0       -2.139295    1.872265   -1.128620
     31          8           0       -1.926860    2.822371    0.710241
     32          1           0       -1.076273    3.186187    0.446866
     33          6           0       -3.505608    1.113856    0.350392
     34          1           0       -3.498482    0.942615    1.437629
     35          8           0       -4.551859    1.995148    0.003277
     36          1           0       -4.345254    2.850379    0.394061
     37          6           0       -3.788436   -0.213544   -0.333823
     38          1           0       -3.855126   -0.039209   -1.417539
     39          8           0       -4.971813   -0.794861    0.160637
     40          1           0       -5.647344   -0.108514    0.138596
     41          6           0       -2.744199   -2.497375   -0.738516
     42          1           0       -3.690545   -2.964431   -0.452839
     43          1           0       -2.716321   -2.346189   -1.823450
     44          8           0       -1.625863   -3.256034   -0.297293
     45          1           0       -1.583225   -4.081464   -0.783727
 ---------------------------------------------------------------------

 The electronic state is 1-A.
 Alpha  occ. eigenvalues --  -19.65740 -19.64976 -19.64606 -19.64054 -19.63897
 Alpha  occ. eigenvalues --  -19.63485 -19.63122 -19.62777 -19.61919 -19.61682
 Alpha  occ. eigenvalues --  -19.60691 -10.65731 -10.64525 -10.61142 -10.60824
 Alpha  occ. eigenvalues --  -10.60650 -10.60564 -10.60522 -10.60449 -10.60125
 Alpha  occ. eigenvalues --  -10.59910 -10.59406 -10.58533  -1.23398  -1.21225
 Alpha  occ. eigenvalues --   -1.18496  -1.18164  -1.16841  -1.16548  -1.16075
 Alpha  occ. eigenvalues --   -1.15122  -1.15051  -1.13662  -1.13082  -0.91908
 Alpha  occ. eigenvalues --   -0.90530  -0.88118  -0.87206  -0.80496  -0.78416
 Alpha  occ. eigenvalues --   -0.76049  -0.72669  -0.71916  -0.71045  -0.70072
 Alpha  occ. eigenvalues --   -0.68655  -0.65257  -0.63980  -0.63336  -0.62181
 Alpha  occ. eigenvalues --   -0.61689  -0.61082  -0.60156  -0.59015  -0.58281
 Alpha  occ. eigenvalues --   -0.57319  -0.56323  -0.56152  -0.55097  -0.54310
 Alpha  occ. eigenvalues --   -0.53276  -0.53085  -0.52229  -0.51777  -0.50170
 Alpha  occ. eigenvalues --   -0.49906  -0.49581  -0.48853  -0.47346  -0.46850
 Alpha  occ. eigenvalues --   -0.46147  -0.45397  -0.44953  -0.44298  -0.43062
 Alpha  occ. eigenvalues --   -0.42438  -0.42072  -0.41610  -0.40996  -0.40421
 Alpha  occ. eigenvalues --   -0.38973  -0.38713  -0.38219  -0.37780  -0.36983
 Alpha  occ. eigenvalues --   -0.36268  -0.35975  -0.34979  -0.34762  -0.34202
 Alpha  occ. eigenvalues --   -0.33280
 Alpha virt. eigenvalues --    0.04618   0.05158   0.06442   0.07088   0.07496
 Alpha virt. eigenvalues --    0.08595   0.09118   0.09821   0.10613   0.10974
 Alpha virt. eigenvalues --    0.11414   0.12586   0.13058   0.13457   0.14179

 Mulliken charges:
               1
     1  C    0.230864
     2  H    0.145980
     3  O   -0.373708
     4  H    0.250976
     5  C   -0.086417
     6  H    0.164023
     7  O   -0.403440
     8  C    0.003744
     9  H    0.133881
    10  O   -0.413292
    11  H    0.262861
    12  C   -0.061866
    13  H    0.169223
    14  O   -0.453069
    15  H    0.300291
    16  C    0.045508
    17  H    0.168581
    18  O   -0.405454
    19  C    0.007708
    20  H    0.133800
    21  H    0.121842
    22  O   -0.416777
    23  H    0.261403
    24  C    0.215013
    25  H    0.146580
    26  C   -0.117379
    27  H    0.177134
    28  O   -0.385853
    29  C    0.016161
    30  H    0.164434
    31  O   -0.431895
    32  H    0.272852
    33  C   -0.028033
    34  H    0.159220
    35  O   -0.438847
    36  H    0.277653
    37  C    0.055198
    38  H    0.156602
    39  O   -0.427499
    40  H    0.275259
    41  C    0.002325
    42  H    0.156203
    43  H    0.139107
    44  O   -0.452474
    45  H    0.281577
 Sum of Mulliken charges =  -0.00000

 Dipole moment (field-independent basis, Debye):
    X=             -3.9197    Y=             -1.3918    Z=              0.5033  Tot=              4.1898
 Quadrupole moment (field-independent basis, Debye-Ang):
   XX=           -150.2762   YY=           -134.0895   ZZ=           -133.8748
   XY=              0.8797   XZ=             10.8756   YZ=              7.6138

 Normal termination of Gaussian 16 at Thu Mar 16 20:03:19 2023.
