 Gaussian 16, Revision A.03,
 Gaussian 16:  EM64L-G16RevA.03 25-Dec-2016

 ------------------------
 #p opt M062X/6-311g(d,p)
 ------------------------

 ---------------------------------------------------------
 Optimization 03-DIHEDRAL_PHI_PSI_14b/dimer14b_000_006.log
 ---------------------------------------------------------
 Symbolic Z-matrix:
 Charge =  0 Multiplicity = 1

 SCF Done:  E(RM062X) =  -1297.83077673     A.U. after   12 cycles
 SCF Done:  E(RM062X) =  -1297.82977750     A.U. after   11 cycles
 SCF Done:  E(RM062X) =  -1297.82964622     A.U. after   11 cycles
 SCF Done:  E(RM062X) =  -1297.82868932     A.U. after   11 cycles
 SCF Done:  E(RM062X) =  -1297.83079585     A.U. after    8 cycles
 SCF Done:  E(RM062X) =  -1297.83122778     A.U. after   11 cycles
 SCF Done:  E(RM062X) =  -1297.83150214     A.U. after   10 cycles
 SCF Done:  E(RM062X) =  -1297.83149747     A.U. after   10 cycles
 SCF Done:  E(RM062X) =  -1297.83161047     A.U. after    9 cycles
 SCF Done:  E(RM062X) =  -1297.83162485     A.U. after    9 cycles
 SCF Done:  E(RM062X) =  -1297.83163233     A.U. after    8 cycles
 SCF Done:  E(RM062X) =  -1297.83163498     A.U. after    7 cycles
 SCF Done:  E(RM062X) =  -1297.83163536     A.U. after    7 cycles
 SCF Done:  E(RM062X) =  -1297.83163557     A.U. after    6 cycles
 SCF Done:  E(RM062X) =  -1297.83163564     A.U. after    6 cycles
 Optimization completed.
    -- Stationary point found.

                         Standard orientation:
 ---------------------------------------------------------------------
 Center     Atomic      Atomic             Coordinates (Angstroms)
 Number     Number       Type             X           Y           Z
 ---------------------------------------------------------------------
      1          6           0        3.496771    0.379578   -0.751487
      2          1           0        2.939542    0.626209   -1.663821
      3          8           0        4.792935    0.793674   -0.957514
      4          1           0        5.331480    0.475873   -0.226035
      5          6           0        1.578283    0.863376    0.588594
      6          1           0        1.008332    1.110997   -0.318016
      7          8           0        2.962539    1.094406    0.355203
      8          6           0        3.380008   -1.115662   -0.458321
      9          1           0        3.965845   -1.329606    0.451070
     10          8           0        3.865102   -1.835528   -1.559687
     11          1           0        3.609425   -2.753608   -1.419706
     12          6           0        1.925710   -1.465197   -0.188241
     13          1           0        1.378040   -1.251623   -1.117247
     14          8           0        1.866563   -2.846973    0.099739
     15          1           0        0.938372   -3.088751    0.181243
     16          6           0        1.381815   -0.612505    0.949280
     17          1           0        1.949339   -0.837229    1.856541
     18          8           0        0.038474   -0.968485    1.279922
     19          6           0        1.163592    1.823137    1.684379
     20          1           0        0.184853    1.551512    2.070868
     21          1           0        1.904451    1.774585    2.490746
     22          8           0        1.055900    3.141499    1.173898
     23          1           0        1.903132    3.360988    0.770994
     24          6           0       -0.941123   -0.671583    0.341441
     25          1           0       -0.611335   -0.928156   -0.678751
     26          6           0       -2.173848    1.090639   -0.611748
     27          1           0       -1.789040    0.790890   -1.597975
     28          8           0       -1.250786    0.697052    0.400329
     29          6           0       -2.182034   -1.477138    0.684950
     30          1           0       -2.499915   -1.198112    1.696574
     31          8           0       -1.938176   -2.869205    0.587665
     32          1           0       -1.462750   -3.133677    1.380076
     33          6           0       -3.274628   -1.122587   -0.307071
     34          1           0       -2.954507   -1.448893   -1.308409
     35          8           0       -4.507533   -1.721381    0.029587
     36          1           0       -4.362742   -2.671840    0.071279
     37          6           0       -3.500137    0.383407   -0.354266
     38          1           0       -3.889648    0.703082    0.623708
     39          8           0       -4.392309    0.718264   -1.389907
     40          1           0       -5.168782    0.159513   -1.279900
     41          6           0       -2.243501    2.605057   -0.570544
     42          1           0       -2.975537    2.935738   -1.308672
     43          1           0       -2.589851    2.913986    0.424435
     44          8           0       -0.999586    3.172260   -0.896584
     45          1           0       -0.419148    3.150329   -0.122001
 ---------------------------------------------------------------------

 The electronic state is 1-A.
 Alpha  occ. eigenvalues --  -19.66678 -19.65460 -19.65142 -19.64480 -19.64460
 Alpha  occ. eigenvalues --  -19.63762 -19.63332 -19.63326 -19.62665 -19.62615
 Alpha  occ. eigenvalues --  -19.59630 -10.66509 -10.65262 -10.61742 -10.61332
 Alpha  occ. eigenvalues --  -10.61199 -10.60792 -10.60708 -10.60562 -10.60293
 Alpha  occ. eigenvalues --  -10.60048 -10.59133 -10.57888  -1.23927  -1.21726
 Alpha  occ. eigenvalues --   -1.18990  -1.18563  -1.17679  -1.16738  -1.16389
 Alpha  occ. eigenvalues --   -1.15311  -1.15105  -1.14260  -1.12654  -0.92323
 Alpha  occ. eigenvalues --   -0.90378  -0.88645  -0.87856  -0.80494  -0.78847
 Alpha  occ. eigenvalues --   -0.76348  -0.73670  -0.72154  -0.71734  -0.69877
 Alpha  occ. eigenvalues --   -0.69433  -0.65282  -0.64899  -0.63893  -0.62423
 Alpha  occ. eigenvalues --   -0.61684  -0.60995  -0.59867  -0.58993  -0.58337
 Alpha  occ. eigenvalues --   -0.58080  -0.57109  -0.56298  -0.55738  -0.55090
 Alpha  occ. eigenvalues --   -0.53930  -0.53376  -0.51736  -0.51494  -0.50820
 Alpha  occ. eigenvalues --   -0.50466  -0.49379  -0.48562  -0.47345  -0.47044
 Alpha  occ. eigenvalues --   -0.46172  -0.45975  -0.45296  -0.44507  -0.43934
 Alpha  occ. eigenvalues --   -0.43439  -0.42586  -0.42194  -0.41910  -0.40087
 Alpha  occ. eigenvalues --   -0.39778  -0.38740  -0.38145  -0.37719  -0.37333
 Alpha  occ. eigenvalues --   -0.36547  -0.36033  -0.35767  -0.34880  -0.34024
 Alpha  occ. eigenvalues --   -0.33521
 Alpha virt. eigenvalues --    0.03394   0.04735   0.06674   0.07102   0.07225
 Alpha virt. eigenvalues --    0.08452   0.08899   0.09191   0.10538   0.10766
 Alpha virt. eigenvalues --    0.11691   0.11961   0.12647   0.13417   0.14036

 Mulliken charges:
               1
     1  C    0.227116
     2  H    0.153496
     3  O   -0.369337
     4  H    0.248870
     5  C   -0.086125
     6  H    0.157918
     7  O   -0.397658
     8  C    0.010129
     9  H    0.139049
    10  O   -0.405398
    11  H    0.267883
    12  C   -0.055864
    13  H    0.159616
    14  O   -0.425106
    15  H    0.259815
    16  C    0.011374
    17  H    0.180341
    18  O   -0.401273
    19  C   -0.018566
    20  H    0.164700
    21  H    0.143805
    22  O   -0.434599
    23  H    0.277726
    24  C    0.217631
    25  H    0.138487
    26  C   -0.067334
    27  H    0.163102
    28  O   -0.394538
    29  C    0.005950
    30  H    0.170834
    31  O   -0.439525
    32  H    0.275204
    33  C   -0.027181
    34  H    0.158956
    35  O   -0.434578
    36  H    0.273680
    37  C    0.045119
    38  H    0.154844
    39  O   -0.419871
    40  H    0.271561
    41  C   -0.033903
    42  H    0.153938
    43  H    0.129445
    44  O   -0.428316
    45  H    0.278583
 Sum of Mulliken charges =  -0.00000

 Dipole moment (field-independent basis, Debye):
    X=             -0.9538    Y=             -4.3660    Z=              3.2202  Tot=              5.5083
 Quadrupole moment (field-independent basis, Debye-Ang):
   XX=           -138.8556   YY=           -140.7936   ZZ=           -139.7863
   XY=              5.4905   XZ=              7.4643   YZ=              2.0496

 Normal termination of Gaussian 16 at Thu Mar 16 20:03:07 2023.
