 Gaussian 16, Revision A.03,
 Gaussian 16:  EM64L-G16RevA.03 25-Dec-2016

 ------------------------
 #p opt M062X/6-311g(d,p)
 ------------------------

 ---------------------------------------------------------
 Optimization 03-DIHEDRAL_PHI_PSI_14b/dimer14b_000_009.log
 ---------------------------------------------------------
 Symbolic Z-matrix:
 Charge =  0 Multiplicity = 1

 SCF Done:  E(RM062X) =  -1297.82597693     A.U. after   12 cycles
 SCF Done:  E(RM062X) =  -1297.77339626     A.U. after   13 cycles
 SCF Done:  E(RM062X) =  -1297.81611924     A.U. after   12 cycles
 SCF Done:  E(RM062X) =  -1297.82720131     A.U. after   10 cycles
 SCF Done:  E(RM062X) =  -1297.82871708     A.U. after   11 cycles
 SCF Done:  E(RM062X) =  -1297.82998544     A.U. after   12 cycles
 SCF Done:  E(RM062X) =  -1297.83167276     A.U. after   11 cycles
 SCF Done:  E(RM062X) =  -1297.83243929     A.U. after   11 cycles
 SCF Done:  E(RM062X) =  -1297.83254707     A.U. after    9 cycles
 SCF Done:  E(RM062X) =  -1297.83259625     A.U. after   10 cycles
 SCF Done:  E(RM062X) =  -1297.83264346     A.U. after    9 cycles
 SCF Done:  E(RM062X) =  -1297.83268144     A.U. after   10 cycles
 SCF Done:  E(RM062X) =  -1297.83268648     A.U. after    8 cycles
 SCF Done:  E(RM062X) =  -1297.83268792     A.U. after    7 cycles
 SCF Done:  E(RM062X) =  -1297.83268886     A.U. after    7 cycles
 SCF Done:  E(RM062X) =  -1297.83268951     A.U. after    7 cycles
 SCF Done:  E(RM062X) =  -1297.83268976     A.U. after    7 cycles
 Optimization completed.
    -- Stationary point found.

                         Standard orientation:
 ---------------------------------------------------------------------
 Center     Atomic      Atomic             Coordinates (Angstroms)
 Number     Number       Type             X           Y           Z
 ---------------------------------------------------------------------
      1          6           0        3.896027   -0.674956   -0.285463
      2          1           0        3.784123   -0.802606   -1.369362
      3          8           0        5.188205   -1.033209    0.025889
      4          1           0        5.251693   -1.140876    0.979907
      5          6           0        2.455511    1.204603   -0.373130
      6          1           0        2.353145    1.056485   -1.458535
      7          8           0        3.702041    0.690601    0.060651
      8          6           0        2.844820   -1.475482    0.466129
      9          1           0        2.997310   -1.275580    1.540713
     10          8           0        3.000156   -2.840118    0.182387
     11          1           0        2.237825   -3.271319    0.584918
     12          6           0        1.427884   -1.021770    0.110809
     13          1           0        1.239071   -1.244376   -0.946939
     14          8           0        0.572479   -1.784018    0.941317
     15          1           0       -0.172900   -2.116169    0.419802
     16          6           0        1.298478    0.487906    0.323235
     17          1           0        1.320169    0.690774    1.403568
     18          8           0        0.127199    1.071396   -0.242498
     19          6           0        2.500867    2.693580   -0.080265
     20          1           0        1.597884    3.169431   -0.462362
     21          1           0        2.542154    2.831365    1.009991
     22          8           0        3.600885    3.291171   -0.718929
     23          1           0        4.363090    2.741742   -0.505979
     24          6           0       -1.088864    0.593963    0.211052
     25          1           0       -1.034667    0.349039    1.283819
     26          6           0       -2.627546   -1.159188   -0.054423
     27          1           0       -2.560373   -1.333645    1.030696
     28          8           0       -1.427409   -0.564510   -0.523781
     29          6           0       -2.146138    1.655883   -0.052756
     30          1           0       -2.139517    1.871994   -1.129081
     31          8           0       -1.926593    2.822571    0.709448
     32          1           0       -1.075448    3.185546    0.446688
     33          6           0       -3.505465    1.113950    0.350495
     34          1           0       -3.497917    0.942764    1.437741
     35          8           0       -4.551855    1.995221    0.003767
     36          1           0       -4.345051    2.850534    0.394269
     37          6           0       -3.788563   -0.213485   -0.333541
     38          1           0       -3.855489   -0.039251   -1.417260
     39          8           0       -4.971847   -0.794684    0.161240
     40          1           0       -5.647247   -0.108185    0.139729
     41          6           0       -2.744511   -2.497326   -0.738438
     42          1           0       -3.690825   -2.964338   -0.452585
     43          1           0       -2.716808   -2.346108   -1.823365
     44          8           0       -1.626116   -3.256020   -0.297399
     45          1           0       -1.582387   -4.080500   -0.785339
 ---------------------------------------------------------------------

 The electronic state is 1-A.
 Alpha  occ. eigenvalues --  -19.65744 -19.64979 -19.64607 -19.64054 -19.63900
 Alpha  occ. eigenvalues --  -19.63486 -19.63122 -19.62777 -19.61921 -19.61682
 Alpha  occ. eigenvalues --  -19.60692 -10.65734 -10.64526 -10.61143 -10.60826
 Alpha  occ. eigenvalues --  -10.60651 -10.60565 -10.60523 -10.60450 -10.60128
 Alpha  occ. eigenvalues --  -10.59912 -10.59407 -10.58535  -1.23402  -1.21227
 Alpha  occ. eigenvalues --   -1.18498  -1.18167  -1.16842  -1.16550  -1.16077
 Alpha  occ. eigenvalues --   -1.15123  -1.15052  -1.13663  -1.13082  -0.91910
 Alpha  occ. eigenvalues --   -0.90531  -0.88119  -0.87208  -0.80497  -0.78417
 Alpha  occ. eigenvalues --   -0.76050  -0.72670  -0.71918  -0.71047  -0.70075
 Alpha  occ. eigenvalues --   -0.68657  -0.65258  -0.63981  -0.63338  -0.62183
 Alpha  occ. eigenvalues --   -0.61691  -0.61083  -0.60156  -0.59016  -0.58282
 Alpha  occ. eigenvalues --   -0.57321  -0.56323  -0.56151  -0.55098  -0.54313
 Alpha  occ. eigenvalues --   -0.53277  -0.53087  -0.52229  -0.51779  -0.50171
 Alpha  occ. eigenvalues --   -0.49908  -0.49583  -0.48855  -0.47349  -0.46853
 Alpha  occ. eigenvalues --   -0.46148  -0.45400  -0.44954  -0.44301  -0.43065
 Alpha  occ. eigenvalues --   -0.42437  -0.42074  -0.41611  -0.40996  -0.40421
 Alpha  occ. eigenvalues --   -0.38976  -0.38715  -0.38220  -0.37782  -0.36982
 Alpha  occ. eigenvalues --   -0.36267  -0.35974  -0.34982  -0.34762  -0.34205
 Alpha  occ. eigenvalues --   -0.33282
 Alpha virt. eigenvalues --    0.04617   0.05158   0.06441   0.07088   0.07495
 Alpha virt. eigenvalues --    0.08594   0.09118   0.09820   0.10613   0.10973
 Alpha virt. eigenvalues --    0.11415   0.12587   0.13058   0.13455   0.14179

 Mulliken charges:
               1
     1  C    0.230870
     2  H    0.145977
     3  O   -0.373726
     4  H    0.250973
     5  C   -0.086395
     6  H    0.164032
     7  O   -0.403431
     8  C    0.003789
     9  H    0.133868
    10  O   -0.413285
    11  H    0.262861
    12  C   -0.061886
    13  H    0.169199
    14  O   -0.453065
    15  H    0.300295
    16  C    0.045436
    17  H    0.168590
    18  O   -0.405441
    19  C    0.007729
    20  H    0.133804
    21  H    0.121834
    22  O   -0.416791
    23  H    0.261417
    24  C    0.214897
    25  H    0.146562
    26  C   -0.117354
    27  H    0.177145
    28  O   -0.385841
    29  C    0.016277
    30  H    0.164427
    31  O   -0.431883
    32  H    0.272840
    33  C   -0.028065
    34  H    0.159207
    35  O   -0.438864
    36  H    0.277670
    37  C    0.055218
    38  H    0.156595
    39  O   -0.427498
    40  H    0.275266
    41  C    0.002310
    42  H    0.156224
    43  H    0.139105
    44  O   -0.452467
    45  H    0.281574
 Sum of Mulliken charges =  -0.00000

 Dipole moment (field-independent basis, Debye):
    X=             -3.9186    Y=             -1.3900    Z=              0.5003  Tot=              4.1879
 Quadrupole moment (field-independent basis, Debye-Ang):
   XX=           -150.2926   YY=           -134.1215   ZZ=           -133.8653
   XY=              0.8767   XZ=             10.8696   YZ=              7.6298

 Normal termination of Gaussian 16 at Thu Mar 16 19:52:33 2023.
