 Gaussian 16, Revision A.03,
 Gaussian 16:  EM64L-G16RevA.03 25-Dec-2016

 ------------------------
 #p opt M062X/6-311g(d,p)
 ------------------------

 ---------------------------------------------------------
 Optimization 03-DIHEDRAL_PHI_PSI_14b/dimer14b_000_004.log
 ---------------------------------------------------------
 Symbolic Z-matrix:
 Charge =  0 Multiplicity = 1

 SCF Done:  E(RM062X) =  -1297.81257987     A.U. after   12 cycles
 SCF Done:  E(RM062X) =  -1297.81258449     A.U. after   12 cycles
 SCF Done:  E(RM062X) =  -1297.81686203     A.U. after   12 cycles
 SCF Done:  E(RM062X) =  -1297.81615562     A.U. after   12 cycles
 SCF Done:  E(RM062X) =  -1297.81867954     A.U. after   11 cycles
 SCF Done:  E(RM062X) =  -1297.81944189     A.U. after   11 cycles
 SCF Done:  E(RM062X) =  -1297.82022992     A.U. after   12 cycles
 SCF Done:  E(RM062X) =  -1297.82102262     A.U. after   11 cycles
 SCF Done:  E(RM062X) =  -1297.82122144     A.U. after   11 cycles
 SCF Done:  E(RM062X) =  -1297.82128035     A.U. after   10 cycles
 SCF Done:  E(RM062X) =  -1297.82129965     A.U. after    9 cycles
 SCF Done:  E(RM062X) =  -1297.82130957     A.U. after    9 cycles
 SCF Done:  E(RM062X) =  -1297.82131210     A.U. after    9 cycles
 SCF Done:  E(RM062X) =  -1297.82131346     A.U. after    7 cycles
 SCF Done:  E(RM062X) =  -1297.82131372     A.U. after    6 cycles
 Optimization completed.
    -- Stationary point found.

                         Standard orientation:
 ---------------------------------------------------------------------
 Center     Atomic      Atomic             Coordinates (Angstroms)
 Number     Number       Type             X           Y           Z
 ---------------------------------------------------------------------
      1          6           0        4.024697    0.180999   -0.442626
      2          1           0        4.077042   -0.397392   -1.373218
      3          8           0        5.226527    0.837862   -0.315707
      4          1           0        5.281530    1.204702    0.572246
      5          6           0        1.695162    0.648826   -0.867123
      6          1           0        1.738285    0.132454   -1.837951
      7          8           0        2.985796    1.147286   -0.527006
      8          6           0        3.692086   -0.726300    0.732072
      9          1           0        3.629195   -0.097883    1.635444
     10          8           0        4.683237   -1.710614    0.860258
     11          1           0        4.342763   -2.362033    1.482764
     12          6           0        2.338078   -1.360767    0.484255
     13          1           0        2.425312   -1.992031   -0.413118
     14          8           0        2.045148   -2.157059    1.613042
     15          1           0        1.175054   -2.542580    1.473100
     16          6           0        1.244572   -0.335161    0.221798
     17          1           0        1.024117    0.207852    1.146879
     18          8           0        0.123938   -1.153250   -0.126781
     19          6           0        0.871589    1.927911   -0.999160
     20          1           0       -0.156115    1.734341   -1.298546
     21          1           0        0.852433    2.420663   -0.017565
     22          8           0        1.432475    2.758136   -1.982869
     23          1           0        2.366136    2.842940   -1.761968
     24          6           0       -1.097830   -0.535256   -0.383348
     25          1           0       -1.077268   -0.030212   -1.361342
     26          6           0       -2.603195    1.091588    0.419392
     27          1           0       -2.564107    1.601794   -0.554077
     28          8           0       -1.375723    0.389839    0.635408
     29          6           0       -2.161005   -1.622953   -0.410954
     30          1           0       -2.146163   -2.135449    0.560254
     31          8           0       -1.960721   -2.523609   -1.477042
     32          1           0       -1.093759   -2.925181   -1.366834
     33          6           0       -3.515193   -0.974180   -0.622169
     34          1           0       -3.520980   -0.497348   -1.613655
     35          8           0       -4.569035   -1.906960   -0.521269
     36          1           0       -4.398541   -2.604650   -1.162085
     37          6           0       -3.758469    0.097733    0.425072
     38          1           0       -3.803583   -0.388441    1.410987
     39          8           0       -4.942784    0.808105    0.156049
     40          1           0       -5.633643    0.152843    0.011385
     41          6           0       -2.701757    2.126657    1.521091
     42          1           0       -3.593035    2.732230    1.361631
     43          1           0       -2.798365    1.607334    2.484122
     44          8           0       -1.585077    2.984942    1.505605
     45          1           0       -0.808955    2.424050    1.594229
 ---------------------------------------------------------------------

 The electronic state is 1-A.
 Alpha  occ. eigenvalues --  -19.67066 -19.66434 -19.64907 -19.64833 -19.64211
 Alpha  occ. eigenvalues --  -19.63941 -19.63626 -19.63178 -19.62711 -19.61899
 Alpha  occ. eigenvalues --  -19.61220 -10.67014 -10.65504 -10.62010 -10.61425
 Alpha  occ. eigenvalues --  -10.61405 -10.61228 -10.61150 -10.60975 -10.60815
 Alpha  occ. eigenvalues --  -10.60523 -10.59387 -10.59067  -1.24477  -1.22124
 Alpha  occ. eigenvalues --   -1.19127  -1.18799  -1.17892  -1.16954  -1.16061
 Alpha  occ. eigenvalues --   -1.15445  -1.15172  -1.14723  -1.13772  -0.92608
 Alpha  occ. eigenvalues --   -0.90954  -0.88751  -0.88248  -0.81434  -0.78763
 Alpha  occ. eigenvalues --   -0.76325  -0.73599  -0.72641  -0.72142  -0.70359
 Alpha  occ. eigenvalues --   -0.69981  -0.65645  -0.65209  -0.64307  -0.62641
 Alpha  occ. eigenvalues --   -0.62368  -0.61433  -0.59469  -0.59148  -0.59030
 Alpha  occ. eigenvalues --   -0.57820  -0.56788  -0.56515  -0.55638  -0.55134
 Alpha  occ. eigenvalues --   -0.54427  -0.53497  -0.53107  -0.51321  -0.50839
 Alpha  occ. eigenvalues --   -0.50424  -0.50321  -0.49303  -0.47883  -0.47527
 Alpha  occ. eigenvalues --   -0.46402  -0.46265  -0.45579  -0.45058  -0.44148
 Alpha  occ. eigenvalues --   -0.43479  -0.43046  -0.42479  -0.41505  -0.40774
 Alpha  occ. eigenvalues --   -0.39706  -0.39046  -0.38357  -0.37660  -0.37561
 Alpha  occ. eigenvalues --   -0.36470  -0.36353  -0.35872  -0.35531  -0.35014
 Alpha  occ. eigenvalues --   -0.34102
 Alpha virt. eigenvalues --    0.03679   0.05049   0.05970   0.06429   0.07006
 Alpha virt. eigenvalues --    0.07623   0.08329   0.09384   0.10223   0.10628
 Alpha virt. eigenvalues --    0.11041   0.11255   0.11971   0.12662   0.13116

 Mulliken charges:
               1
     1  C    0.226097
     2  H    0.147342
     3  O   -0.372277
     4  H    0.251989
     5  C   -0.072976
     6  H    0.168268
     7  O   -0.413543
     8  C    0.013344
     9  H    0.139039
    10  O   -0.408174
    11  H    0.269422
    12  C   -0.046096
    13  H    0.155932
    14  O   -0.431724
    15  H    0.270624
    16  C    0.029373
    17  H    0.176203
    18  O   -0.439527
    19  C    0.001310
    20  H    0.143381
    21  H    0.127671
    22  O   -0.414784
    23  H    0.262731
    24  C    0.233136
    25  H    0.140812
    26  C   -0.091890
    27  H    0.171736
    28  O   -0.414042
    29  C    0.020096
    30  H    0.156305
    31  O   -0.430900
    32  H    0.271868
    33  C   -0.031726
    34  H    0.162192
    35  O   -0.436149
    36  H    0.277809
    37  C    0.049126
    38  H    0.155966
    39  O   -0.423368
    40  H    0.274377
    41  C   -0.014113
    42  H    0.162482
    43  H    0.129368
    44  O   -0.398132
    45  H    0.251423
 Sum of Mulliken charges =  -0.00000

 Dipole moment (field-independent basis, Debye):
    X=             -1.5778    Y=             -4.1193    Z=              1.2075  Tot=              4.5734
 Quadrupole moment (field-independent basis, Debye-Ang):
   XX=           -149.9696   YY=           -143.4307   ZZ=           -137.8568
   XY=              8.1008   XZ=              7.4054   YZ=              4.8248

 Normal termination of Gaussian 16 at Thu Mar 16 18:57:35 2023.
