 Gaussian 16, Revision A.03,
 Gaussian 16:  EM64L-G16RevA.03 25-Dec-2016

 ------------------------
 #p opt M062X/6-311g(d,p)
 ------------------------

 ---------------------------------------------------------
 Optimization 03-DIHEDRAL_PHI_PSI_14b/dimer14b_000_000.log
 ---------------------------------------------------------
 Symbolic Z-matrix:
 Charge =  0 Multiplicity = 1

 SCF Done:  E(RM062X) =  -1297.83288454     A.U. after   12 cycles
 SCF Done:  E(RM062X) =  -1297.83286655     A.U. after   10 cycles
 SCF Done:  E(RM062X) =  -1297.83291479     A.U. after   10 cycles
 SCF Done:  E(RM062X) =  -1297.83290379     A.U. after   10 cycles
 SCF Done:  E(RM062X) =  -1297.83293808     A.U. after    9 cycles
 SCF Done:  E(RM062X) =  -1297.83294021     A.U. after    7 cycles
 SCF Done:  E(RM062X) =  -1297.83294033     A.U. after    6 cycles
 Optimization completed.
    -- Stationary point found.

                         Standard orientation:
 ---------------------------------------------------------------------
 Center     Atomic      Atomic             Coordinates (Angstroms)
 Number     Number       Type             X           Y           Z
 ---------------------------------------------------------------------
      1          6           0        4.073544   -0.244832   -0.212566
      2          1           0        4.257467    0.129112   -1.227262
      3          8           0        5.298775   -0.576970    0.316104
      4          1           0        5.156960   -1.078395    1.125109
      5          6           0        2.301776    1.324818    0.044374
      6          1           0        2.488644    1.705114   -0.971271
      7          8           0        3.496137    0.784744    0.583484
      8          6           0        3.091861   -1.411507   -0.248055
      9          1           0        2.939502   -1.749029    0.791043
     10          8           0        3.627902   -2.435542   -1.042280
     11          1           0        2.920205   -3.074252   -1.180809
     12          6           0        1.750189   -0.952138   -0.798928
     13          1           0        1.898196   -0.636506   -1.842102
     14          8           0        0.892245   -2.075792   -0.752474
     15          1           0        0.004911   -1.776309   -0.991052
     16          6           0        1.226192    0.245533   -0.019851
     17          1           0        0.951236   -0.071799    0.994324
     18          8           0        0.085324    0.797796   -0.683013
     19          6           0        1.923796    2.484715    0.945692
     20          1           0        1.008033    2.953845    0.581466
     21          1           0        1.737115    2.090835    1.955126
     22          8           0        2.933774    3.461139    0.950244
     23          1           0        3.754520    2.997768    1.149093
     24          6           0       -1.119568    0.599750   -0.030892
     25          1           0       -1.047487    0.910035    1.025340
     26          6           0       -2.621224   -1.120972    0.621914
     27          1           0       -2.527702   -0.782012    1.662864
     28          8           0       -1.435153   -0.774337   -0.095117
     29          6           0       -2.205261    1.391116   -0.738158
     30          1           0       -2.231206    1.069416   -1.787174
     31          8           0       -2.000511    2.782273   -0.625473
     32          1           0       -1.211982    3.009390   -1.127170
     33          6           0       -3.538462    1.079524   -0.078598
     34          1           0       -3.503398    1.446699    0.958322
     35          8           0       -4.615527    1.671588   -0.770305
     36          1           0       -4.441053    2.617047   -0.819035
     37          6           0       -3.799641   -0.419829   -0.039958
     38          1           0       -3.894326   -0.779884   -1.075233
     39          8           0       -4.957116   -0.707251    0.705537
     40          1           0       -5.656523   -0.139534    0.364703
     41          6           0       -2.686509   -2.634327    0.605657
     42          1           0       -3.571859   -2.958822    1.151716
     43          1           0       -2.776855   -2.971977   -0.436435
     44          8           0       -1.558764   -3.189170    1.239639
     45          1           0       -0.771244   -2.869663    0.783874
 ---------------------------------------------------------------------

 The electronic state is 1-A.
 Alpha  occ. eigenvalues --  -19.67298 -19.66855 -19.65204 -19.64852 -19.64104
 Alpha  occ. eigenvalues --  -19.64088 -19.63550 -19.63333 -19.62596 -19.61698
 Alpha  occ. eigenvalues --  -19.61525 -10.67394 -10.65469 -10.62179 -10.61734
 Alpha  occ. eigenvalues --  -10.61341 -10.61267 -10.61195 -10.61153 -10.61055
 Alpha  occ. eigenvalues --  -10.60587 -10.59548 -10.59249  -1.25038  -1.22085
 Alpha  occ. eigenvalues --   -1.19294  -1.18767  -1.17968  -1.17258  -1.16157
 Alpha  occ. eigenvalues --   -1.15623  -1.15112  -1.14478  -1.14092  -0.92998
 Alpha  occ. eigenvalues --   -0.91089  -0.88871  -0.88144  -0.81033  -0.79091
 Alpha  occ. eigenvalues --   -0.76672  -0.73703  -0.72869  -0.72256  -0.71058
 Alpha  occ. eigenvalues --   -0.69883  -0.65938  -0.64846  -0.64138  -0.63494
 Alpha  occ. eigenvalues --   -0.62678  -0.61493  -0.59801  -0.59227  -0.58733
 Alpha  occ. eigenvalues --   -0.58425  -0.57030  -0.56535  -0.55849  -0.55636
 Alpha  occ. eigenvalues --   -0.54481  -0.53822  -0.52829  -0.51655  -0.51103
 Alpha  occ. eigenvalues --   -0.50846  -0.50210  -0.48839  -0.47927  -0.47535
 Alpha  occ. eigenvalues --   -0.46307  -0.46038  -0.45676  -0.45225  -0.44428
 Alpha  occ. eigenvalues --   -0.43477  -0.43279  -0.42697  -0.42635  -0.40893
 Alpha  occ. eigenvalues --   -0.39908  -0.39352  -0.38390  -0.37999  -0.37281
 Alpha  occ. eigenvalues --   -0.36592  -0.36376  -0.35992  -0.35452  -0.35208
 Alpha  occ. eigenvalues --   -0.34376
 Alpha virt. eigenvalues --    0.04266   0.04977   0.06095   0.06472   0.07206
 Alpha virt. eigenvalues --    0.08060   0.08316   0.09631   0.10000   0.10210
 Alpha virt. eigenvalues --    0.10609   0.11292   0.12472   0.12872   0.13406

 Mulliken charges:
               1
     1  C    0.226680
     2  H    0.149235
     3  O   -0.370751
     4  H    0.251707
     5  C   -0.050006
     6  H    0.162376
     7  O   -0.400953
     8  C    0.002951
     9  H    0.138847
    10  O   -0.407480
    11  H    0.270889
    12  C    0.005100
    13  H    0.163827
    14  O   -0.446321
    15  H    0.280631
    16  C   -0.050244
    17  H    0.173638
    18  O   -0.402018
    19  C   -0.003451
    20  H    0.132166
    21  H    0.126799
    22  O   -0.412580
    23  H    0.262055
    24  C    0.239888
    25  H    0.147810
    26  C   -0.073943
    27  H    0.169049
    28  O   -0.447644
    29  C    0.009818
    30  H    0.164620
    31  O   -0.428951
    32  H    0.278025
    33  C   -0.031802
    34  H    0.160329
    35  O   -0.435362
    36  H    0.277729
    37  C    0.048948
    38  H    0.154885
    39  O   -0.421456
    40  H    0.274406
    41  C   -0.019934
    42  H    0.161671
    43  H    0.127221
    44  O   -0.404488
    45  H    0.246084
 Sum of Mulliken charges =  -0.00000

 Dipole moment (field-independent basis, Debye):
    X=             -2.5702    Y=              1.3330    Z=             -0.9826  Tot=              3.0575
 Quadrupole moment (field-independent basis, Debye-Ang):
   XX=           -151.6164   YY=           -150.3499   ZZ=           -134.3599
   XY=             -8.0605   XZ=              8.5342   YZ=             -0.7542

 Normal termination of Gaussian 16 at Thu Mar 16 18:00:54 2023.
