 Gaussian 16, Revision A.03,
 Gaussian 16:  EM64L-G16RevA.03 25-Dec-2016

 ------------------------
 #p opt M062X/6-311g(d,p)
 ------------------------

 ---------------------------------------------------------
 Optimization 03-DIHEDRAL_PHI_PSI_14b/dimer14b_000_011.log
 ---------------------------------------------------------
 Symbolic Z-matrix:
 Charge =  0 Multiplicity = 1

 SCF Done:  E(RM062X) =  -1297.82815702     A.U. after   13 cycles
 SCF Done:  E(RM062X) =  -1297.82776729     A.U. after   12 cycles
 SCF Done:  E(RM062X) =  -1297.82956268     A.U. after   11 cycles
 SCF Done:  E(RM062X) =  -1297.82963281     A.U. after   11 cycles
 SCF Done:  E(RM062X) =  -1297.82951619     A.U. after   11 cycles
 SCF Done:  E(RM062X) =  -1297.82982716     A.U. after   11 cycles
 SCF Done:  E(RM062X) =  -1297.82992688     A.U. after   10 cycles
 SCF Done:  E(RM062X) =  -1297.82993602     A.U. after   12 cycles
 SCF Done:  E(RM062X) =  -1297.83002528     A.U. after   11 cycles
 SCF Done:  E(RM062X) =  -1297.83028991     A.U. after   11 cycles
 SCF Done:  E(RM062X) =  -1297.83121398     A.U. after   10 cycles
 SCF Done:  E(RM062X) =  -1297.83138084     A.U. after   11 cycles
 SCF Done:  E(RM062X) =  -1297.83144730     A.U. after   10 cycles
 SCF Done:  E(RM062X) =  -1297.83148726     A.U. after   10 cycles
 SCF Done:  E(RM062X) =  -1297.83149913     A.U. after    9 cycles
 SCF Done:  E(RM062X) =  -1297.83150204     A.U. after    9 cycles
 SCF Done:  E(RM062X) =  -1297.83150467     A.U. after    9 cycles
 SCF Done:  E(RM062X) =  -1297.83150564     A.U. after    9 cycles
 SCF Done:  E(RM062X) =  -1297.83150759     A.U. after    9 cycles
 SCF Done:  E(RM062X) =  -1297.83150773     A.U. after    6 cycles
 Optimization completed.
    -- Stationary point found.

                         Standard orientation:
 ---------------------------------------------------------------------
 Center     Atomic      Atomic             Coordinates (Angstroms)
 Number     Number       Type             X           Y           Z
 ---------------------------------------------------------------------
      1          6           0        3.866533   -0.695222   -0.227019
      2          1           0        3.755059   -0.864584   -1.305329
      3          8           0        5.153604   -1.055237    0.099942
      4          1           0        5.219886   -1.112715    1.058155
      5          6           0        2.448520    1.194778   -0.396874
      6          1           0        2.347655    0.999596   -1.474982
      7          8           0        3.686090    0.684347    0.064765
      8          6           0        2.805329   -1.456776    0.552227
      9          1           0        2.961881   -1.226562    1.619715
     10          8           0        2.942656   -2.830186    0.305853
     11          1           0        2.200808   -3.253305    0.752252
     12          6           0        1.394236   -0.995115    0.184446
     13          1           0        1.202555   -1.260089   -0.863212
     14          8           0        0.526588   -1.707184    1.050845
     15          1           0       -0.199440   -2.091136    0.540759
     16          6           0        1.281867    0.524556    0.328076
     17          1           0        1.306099    0.774625    1.398225
     18          8           0        0.116007    1.095304   -0.262536
     19          6           0        2.510924    2.694890   -0.171568
     20          1           0        1.612326    3.163077   -0.572863
     21          1           0        2.556403    2.881047    0.911281
     22          8           0        3.615743    3.249886   -0.839042
     23          1           0        4.374959    2.709409   -0.595062
     24          6           0       -1.096861    0.604132    0.183094
     25          1           0       -1.038227    0.341719    1.250738
     26          6           0       -2.592598   -1.183782   -0.063157
     27          1           0       -2.471781   -1.369602    1.015555
     28          8           0       -1.424693   -0.550213   -0.567674
     29          6           0       -2.176394    1.648327   -0.053579
     30          1           0       -2.207433    1.867216   -1.128846
     31          8           0       -1.957325    2.815959    0.706743
     32          1           0       -1.121785    3.197770    0.421667
     33          6           0       -3.510189    1.074046    0.393783
     34          1           0       -3.461550    0.906480    1.480396
     35          8           0       -4.588498    1.928098    0.079880
     36          1           0       -4.396244    2.786674    0.470521
     37          6           0       -3.783891   -0.261273   -0.279534
     38          1           0       -3.901654   -0.083870   -1.358763
     39          8           0       -4.926313   -0.880585    0.260876
     40          1           0       -5.629908   -0.222879    0.253531
     41          6           0       -2.696773   -2.515462   -0.781491
     42          1           0       -3.456629   -3.132430   -0.304797
     43          1           0       -2.982143   -2.352909   -1.826360
     44          8           0       -1.454556   -3.201537   -0.695424
     45          1           0       -0.889481   -2.845343   -1.386834
 ---------------------------------------------------------------------

 The electronic state is 1-A.
 Alpha  occ. eigenvalues --  -19.66321 -19.65671 -19.64562 -19.64400 -19.64374
 Alpha  occ. eigenvalues --  -19.63695 -19.63286 -19.63225 -19.63152 -19.62298
 Alpha  occ. eigenvalues --  -19.61076 -10.66192 -10.65056 -10.61484 -10.61265
 Alpha  occ. eigenvalues --  -10.60908 -10.60902 -10.60860 -10.60786 -10.60639
 Alpha  occ. eigenvalues --  -10.60431 -10.60069 -10.58931  -1.23979  -1.21740
 Alpha  occ. eigenvalues --   -1.18767  -1.18536  -1.17348  -1.16993  -1.16308
 Alpha  occ. eigenvalues --   -1.15563  -1.15319  -1.14459  -1.13571  -0.92335
 Alpha  occ. eigenvalues --   -0.90736  -0.88521  -0.87622  -0.80689  -0.78941
 Alpha  occ. eigenvalues --   -0.76409  -0.73119  -0.72603  -0.71656  -0.70526
 Alpha  occ. eigenvalues --   -0.69159  -0.65538  -0.64427  -0.63768  -0.62634
 Alpha  occ. eigenvalues --   -0.62313  -0.61192  -0.60103  -0.59617  -0.58776
 Alpha  occ. eigenvalues --   -0.57649  -0.56968  -0.56421  -0.55486  -0.54628
 Alpha  occ. eigenvalues --   -0.53730  -0.53467  -0.53035  -0.51566  -0.50731
 Alpha  occ. eigenvalues --   -0.50553  -0.49984  -0.49425  -0.47673  -0.46966
 Alpha  occ. eigenvalues --   -0.45787  -0.45604  -0.45159  -0.44558  -0.43610
 Alpha  occ. eigenvalues --   -0.43534  -0.42861  -0.42105  -0.41871  -0.41274
 Alpha  occ. eigenvalues --   -0.39462  -0.39101  -0.38410  -0.37722  -0.37314
 Alpha  occ. eigenvalues --   -0.36946  -0.36181  -0.35529  -0.35285  -0.34649
 Alpha  occ. eigenvalues --   -0.33925
 Alpha virt. eigenvalues --    0.04043   0.05009   0.06161   0.06877   0.07075
 Alpha virt. eigenvalues --    0.08124   0.08762   0.09359   0.10497   0.10630
 Alpha virt. eigenvalues --    0.11013   0.11916   0.12293   0.13277   0.13723

 Mulliken charges:
               1
     1  C    0.229334
     2  H    0.146844
     3  O   -0.371689
     4  H    0.251203
     5  C   -0.088177
     6  H    0.164104
     7  O   -0.402072
     8  C    0.008745
     9  H    0.137176
    10  O   -0.410702
    11  H    0.266144
    12  C   -0.076622
    13  H    0.158703
    14  O   -0.439006
    15  H    0.280711
    16  C    0.047179
    17  H    0.172199
    18  O   -0.402616
    19  C    0.007486
    20  H    0.136130
    21  H    0.122522
    22  O   -0.415224
    23  H    0.261479
    24  C    0.207939
    25  H    0.150620
    26  C   -0.110995
    27  H    0.176263
    28  O   -0.407643
    29  C    0.023923
    30  H    0.164215
    31  O   -0.431024
    32  H    0.272868
    33  C   -0.028376
    34  H    0.160297
    35  O   -0.437254
    36  H    0.277498
    37  C    0.050876
    38  H    0.156382
    39  O   -0.425516
    40  H    0.275351
    41  C   -0.022006
    42  H    0.171187
    43  H    0.143187
    44  O   -0.427065
    45  H    0.275421
 Sum of Mulliken charges =  -0.00000

 Dipole moment (field-independent basis, Debye):
    X=             -3.0099    Y=              0.6644    Z=              0.7649  Tot=              3.1759
 Quadrupole moment (field-independent basis, Debye-Ang):
   XX=           -149.1916   YY=           -147.3448   ZZ=           -132.5088
   XY=             -3.6013   XZ=              9.8304   YZ=              5.2207

 Normal termination of Gaussian 16 at Thu Mar 16 21:03:50 2023.
